ITEM: TIMESTEP
0
ITEM: NUMBER OF ATOMS
256
ITEM: BOX BOUNDS pp pp pp
0.0000000000000000e+00 2.2931999999999999e+01
0.0000000000000000e+00 2.2931999999999999e+01
0.0000000000000000e+00 5.7329999999999997e+00
ITEM: ATOMS type x y z c_outsp[1] c_outsp[2] c_outsp[3]
1 0 0 0 -0.157344 0.174738 -0.971962
1 1.43325 1.43325 1.43325 -0.998834 -0.0363766 0.0317275
1 2.8665 0 0 -0.94318 -0.329524 -0.0427339
1 4.29975 1.43325 1.43325 -0.944895 -0.313042 0.0958049
1 5.733 0 0 -0.381906 -0.517478 -0.765744
1 7.16625 1.43325 1.43325 -0.8347 0.112354 0.539123
1 8.5995 0 0 -0.603877 0.473769 -0.640996
1 10.0328 1.43325 1.43325 0.946975 -0.261028 0.187358
1 11.466 0 0 0.44156 -0.817046 0.370756
1 12.8992 1.43325 1.43325 0.809521 -0.0666991 0.58329
1 14.3325 0 0 0.478057 -0.719211 0.50418
1 15.7657 1.43325 1.43325 0.473018 -0.384096 0.792921
1 17.199 0 0 0.336187 0.877943 0.340872
1 18.6322 1.43325 1.43325 -0.0940957 0.790299 -0.605453
1 20.0655 0 0 0.420379 0.906241 0.0448285
1 21.4987 1.43325 1.43325 0.718708 0.608946 0.335624
1 0 2.8665 0 -0.12048 0.560494 -0.819348
1 2.8665 2.8665 0 -0.245386 -0.787417 0.565474
1 5.733 2.8665 0 -0.716814 0.331284 -0.613538
1 8.5995 2.8665 0 -0.217902 -0.0492115 -0.974729
1 11.466 2.8665 0 0.928703 0.17444 0.327232
1 14.3325 2.8665 0 -0.34509 0.765381 -0.543236
1 17.199 2.8665 0 0.823668 0.518798 -0.228955
1 20.0655 2.8665 0 -0.384095 0.366719 0.847342
1 1.43325 4.29975 1.43325 -0.585757 0.5155 -0.625419
1 4.29975 4.29975 1.43325 -0.306965 -0.769119 -0.560561
1 7.16625 4.29975 1.43325 0.897446 0.209682 0.388103
1 10.0328 4.29975 1.43325 -0.692334 -0.718732 0.0640168
1 12.8992 4.29975 1.43325 -0.719155 0.291177 -0.630898
1 15.7657 4.29975 1.43325 -0.49841 -0.494741 0.711912
1 18.6322 4.29975 1.43325 -0.162275 -0.899517 -0.40563
1 21.4987 4.29975 1.43325 0.226957 0.878052 0.421326
1 0 5.733 0 0.454051 0.654729 0.604291
1 1.43325 7.16625 1.43325 0.647315 0.36122 -0.671195
1 2.8665 5.733 0 0.36281 0.228814 -0.903334
1 4.29975 7.16625 1.43325 0.930724 0.365632 -0.00814806
1 5.733 5.733 0 -0.622467 0.655602 -0.427459
1 7.16625 7.16625 1.43325 -0.459322 -0.593842 -0.660587
1 8.5995 5.733 0 -0.386746 -0.718502 -0.578084
1 10.0328 7.16625 1.43325 -0.400492 -0.754127 -0.520479
1 11.466 5.733 0 -0.760914 -0.647315 -0.0446372
1 12.8992 7.16625 1.43325 0.415049 0.601924 0.682218
1 14.3325 5.733 0 -0.814941 0.335182 0.472783
1 15.7657 7.16625 1.43325 -0.528883 -0.699492 -0.480618
1 17.199 5.733 0 0.279264 -0.780556 -0.559234
1 18.6322 7.16625 1.43325 0.759724 0.149951 -0.63272
1 20.0655 5.733 0 0.619056 -0.340273 -0.707802
1 21.4987 7.16625 1.43325 0.859693 -0.471357 -0.196849
1 0 8.5995 0 -0.45099 -0.555439 0.698638
1 2.8665 8.5995 0 0.396006 0.108929 -0.911764
1 5.733 8.5995 0 -0.120089 -0.887364 -0.445156
1 8.5995 8.5995 0 0.872554 0.0719948 0.483183
1 11.466 8.5995 0 -0.208385 -0.759714 -0.615963
1 14.3325 8.5995 0 0.0607643 0.903427 0.424414
1 17.199 8.5995 0 0.111869 -0.815525 -0.567806
1 20.0655 8.5995 0 -0.598324 0.510889 -0.617253
1 1.43325 10.0328 1.43325 -0.587766 0.27752 0.759943
1 4.29975 10.0328 1.43325 0.6639 -0.540996 -0.516294
1 7.16625 10.0328 1.43325 0.684841 -0.390118 0.615468
1 10.0328 10.0328 1.43325 0.347181 -0.932835 0.0963597
1 12.8992 10.0328 1.43325 0.730975 -0.294776 0.615453
1 15.7657 10.0328 1.43325 0.499533 0.132784 0.856058
1 18.6322 10.0328 1.43325 0.939926 -0.172051 -0.294853
1 21.4987 10.0328 1.43325 -0.531421 -0.520801 0.6681
1 0 11.466 0 -0.461048 -0.0993976 -0.881791
1 1.43325 12.8992 1.43325 -0.72684 -0.686756 0.00829833
1 2.8665 11.466 0 -0.299083 -0.626865 0.719437
1 4.29975 12.8992 1.43325 0.740305 -0.669245 -0.0637075
1 5.733 11.466 0 0.460383 0.795781 -0.393422
1 7.16625 12.8992 1.43325 0.542351 -0.396159 0.740887
1 8.5995 11.466 0 -0.551526 -0.117063 -0.825902
1 10.0328 12.8992 1.43325 -0.0282835 0.708209 -0.705436
1 11.466 11.466 0 -0.694904 -0.694543 0.186329
1 12.8992 12.8992 1.43325 -0.420597 0.706862 0.568721
1 14.3325 11.466 0 0.923799 0.123898 0.362277
1 15.7657 12.8992 1.43325 -0.864931 -0.410162 0.289244
1 17.199 11.466 0 -0.576555 0.812617 0.0850786
1 18.6322 12.8992 1.43325 -0.188999 -0.602368 0.775521
1 20.0655 11.466 0 -0.509671 0.840189 -0.185252
1 21.4987 12.8992 1.43325 -0.031379 0.558347 0.829014
1 0 14.3325 0 -0.678155 -0.269328 -0.68379
1 2.8665 14.3325 0 -0.156151 0.681242 0.715211
1 5.733 14.3325 0 0.728003 0.0764681 0.681296
1 8.5995 14.3325 0 0.289292 0.952354 0.096607
1 11.466 14.3325 0 -0.403586 0.857708 0.318521
1 14.3325 14.3325 0 -0.413719 0.459047 -0.786201
1 17.199 14.3325 0 0.710949 0.171577 -0.681992
1 20.0655 14.3325 0 0.494003 0.663845 -0.56149
1 1.43325 15.7657 1.43325 -0.0655563 -0.994761 -0.0784432
1 4.29975 15.7657 1.43325 0.488324 0.713082 0.503045
1 7.16625 15.7657 1.43325 0.0586744 0.56472 0.823194
1 10.0328 15.7657 1.43325 -0.296549 0.610746 -0.734199
1 12.8992 15.7657 1.43325 0.216996 -0.762971 0.608924
1 15.7657 15.7657 1.43325 -0.160255 -0.411212 0.897342
1 18.6322 15.7657 1.43325 0.536689 -0.587614 -0.605536
1 21.4987 15.7657 1.43325 -0.659126 0.613865 -0.434423
1 0 17.199 0 0.145415 0.98269 -0.114781
1 1.43325 18.6322 1.43325 0.179065 -0.721046 0.669349
1 2.8665 17.199 0 -0.626126 0.545994 -0.556648
1 4.29975 18.6322 1.43325 -0.162192 0.843822 0.511525
1 5.733 17.199 0 -0.24425 -0.767358 0.592878
1 7.16625 18.6322 1.43325 -0.494125 -0.25888 0.829953
1 8.5995 17.199 0 0.895454 -0.128035 0.426345
1 10.0328 18.6322 1.43325 0.601375 0.220334 0.767985
1 11.466 17.199 0 -0.909827 0.103437 0.401889
1 12.8992 18.6322 1.43325 -0.526207 -0.581345 0.6206
1 14.3325 17.199 0 0.936156 0.266426 -0.22941
1 15.7657 18.6322 1.43325 -0.624766 -0.600697 0.498828
1 17.199 17.199 0 0.013555 -0.0618036 -0.997996
1 18.6322 18.6322 1.43325 0.0267399 -0.968989 0.245654
1 20.0655 17.199 0 -0.10004 0.74122 -0.663765
1 21.4987 18.6322 1.43325 0.550834 0.765358 -0.332878
1 0 20.0655 0 0.379433 -0.625811 0.681463
1 2.8665 20.0655 0 -0.541148 -0.635345 0.550904
1 5.733 20.0655 0 -0.612951 -0.426684 -0.665005
1 8.5995 20.0655 0 0.672018 -0.446188 0.591022
1 11.466 20.0655 0 0.0436822 0.996811 -0.0667875
1 14.3325 20.0655 0 -0.737919 -0.664067 -0.120379
1 17.199 20.0655 0 -0.456498 -0.182723 -0.870759
1 20.0655 20.0655 0 -0.358514 -0.860799 -0.361238
1 1.43325 21.4987 1.43325 -0.209146 0.339125 -0.917198
1 4.29975 21.4987 1.43325 0.51831 0.673643 0.526839
1 7.16625 21.4987 1.43325 0.819142 0.341926 -0.460535
1 10.0328 21.4987 1.43325 -0.680815 -0.716361 -0.152704
1 12.8992 21.4987 1.43325 -0.275887 -0.95952 0.0566412
1 15.7657 21.4987 1.43325 -0.166527 0.971256 -0.170087
1 18.6322 21.4987 1.43325 -0.291756 0.259456 -0.920631
1 21.4987 21.4987 1.43325 0.214303 -0.534013 -0.817866
1 0 0 2.8665 0.237643 -0.546009 -0.803368
1 2.8665 0 2.8665 -0.18871 -0.219952 -0.957084
1 5.733 0 2.8665 -0.374038 -0.756887 -0.535926
1 8.5995 0 2.8665 0.577166 0.814227 0.0625576
1 11.466 0 2.8665 -0.0310627 -0.172406 0.984536
1 14.3325 0 2.8665 -0.53318 -0.839222 -0.106887
1 17.199 0 2.8665 -0.56496 0.00519944 -0.825102
1 20.0655 0 2.8665 -0.645596 -0.759404 -0.0806895
1 0 2.8665 2.8665 0.302469 -0.410924 -0.860032
1 2.8665 2.8665 2.8665 0.808889 0.35407 -0.469397
1 5.733 2.8665 2.8665 -0.711466 -0.500334 0.493438
1 8.5995 2.8665 2.8665 -0.547881 0.660305 0.513638
1 11.466 2.8665 2.8665 -0.320129 0.504922 -0.801605
1 14.3325 2.8665 2.8665 0.855474 0.463099 -0.231742
1 17.199 2.8665 2.8665 0.031064 -0.879065 -0.475688
1 20.0655 2.8665 2.8665 -0.692873 0.464645 0.551391
1 0 5.733 2.8665 -0.726608 -0.368018 -0.580176
1 2.8665 5.733 2.8665 -0.793351 0.285725 0.537546
1 5.733 5.733 2.8665 0.157505 0.406575 -0.899938
1 8.5995 5.733 2.8665 -0.292768 0.699974 -0.651401
1 11.466 5.733 2.8665 -0.191176 0.887511 -0.419257
1 14.3325 5.733 2.8665 0.0272652 -0.477221 0.87836
1 17.199 5.733 2.8665 -0.661102 0.735845 -0.146549
1 20.0655 5.733 2.8665 -0.585837 0.736679 -0.337786
1 0 8.5995 2.8665 0.192373 -0.694383 -0.693415
1 2.8665 8.5995 2.8665 0.861343 -0.0966562 -0.498743
1 5.733 8.5995 2.8665 0.579686 -0.753043 -0.311273
1 8.5995 8.5995 2.8665 -0.691395 0.142326 0.708319
1 11.466 8.5995 2.8665 0.993657 0.100176 0.0510913
1 14.3325 8.5995 2.8665 -0.848829 -0.240142 -0.470978
1 17.199 8.5995 2.8665 0.359896 -0.932828 -0.0175209
1 20.0655 8.5995 2.8665 -0.24034 0.826797 0.50857
1 0 11.466 2.8665 0.689328 -0.724225 -0.0180311
1 2.8665 11.466 2.8665 -0.814733 0.0852023 -0.573542
1 5.733 11.466 2.8665 -0.465804 -0.549679 -0.693455
1 8.5995 11.466 2.8665 0.252955 0.876131 -0.410375
1 11.466 11.466 2.8665 -0.440123 0.797909 -0.411865
1 14.3325 11.466 2.8665 -0.831724 -0.463063 0.306282
1 17.199 11.466 2.8665 -0.20114 0.809772 0.551191
1 20.0655 11.466 2.8665 -0.277339 0.66087 -0.697376
1 0 14.3325 2.8665 -0.516108 -0.843559 -0.148461
1 2.8665 14.3325 2.8665 0.412125 0.89851 0.151103
1 5.733 14.3325 2.8665 -0.67465 -0.312731 -0.668616
1 8.5995 14.3325 2.8665 -0.596003 -0.74016 0.311359
1 11.466 14.3325 2.8665 0.666853 -0.628048 -0.401077
1 14.3325 14.3325 2.8665 0.763986 -0.584874 -0.272485
1 17.199 14.3325 2.8665 -0.848067 -0.523631 0.0811917
1 20.0655 14.3325 2.8665 0.455473 0.624811 0.634157
1 0 17.199 2.8665 0.0352457 0.618082 -0.785323
1 2.8665 17.199 2.8665 -0.0989573 0.54078 0.835323
1 5.733 17.199 2.8665 0.704713 -0.302776 -0.641643
1 8.5995 17.199 2.8665 -0.64833 -0.269946 -0.711897
1 11.466 17.199 2.8665 0.499417 0.4069 -0.764863
1 14.3325 17.199 2.8665 0.888119 -0.223414 0.40166
1 17.199 17.199 2.8665 0.966351 0.0770305 0.245421
1 20.0655 17.199 2.8665 0.862173 -0.50657 0.0066796
1 0 20.0655 2.8665 0.00533169 0.419934 -0.907539
1 2.8665 20.0655 2.8665 -0.516137 -0.594705 -0.616383
1 5.733 20.0655 2.8665 -0.32832 0.80254 -0.498133
1 8.5995 20.0655 2.8665 0.543854 -0.682659 0.488057
1 11.466 20.0655 2.8665 0.811337 0.351912 0.466787
1 14.3325 20.0655 2.8665 -0.775503 -0.0648179 0.628008
1 17.199 20.0655 2.8665 -0.562535 -0.155979 -0.811926
1 20.0655 20.0655 2.8665 0.630589 -0.700257 -0.33466
1 1.43325 1.43325 4.29975 0.163245 -0.554694 0.815883
1 4.29975 1.43325 4.29975 -0.58661 0.795522 -0.151767
1 7.16625 1.43325 4.29975 0.966536 0.203411 0.156306
1 10.0328 1.43325 4.29975 -0.481109 -0.470003 0.740021
1 12.8992 1.43325 4.29975 0.734846 0.645811 0.207193
1 15.7657 1.43325 4.29975 -0.252391 0.745611 0.616736
1 18.6322 1.43325 4.29975 0.527633 -0.812685 0.247278
1 21.4987 1.43325 4.29975 0.388058 -0.13226 -0.912096
1 1.43325 4.29975 4.29975 0.547118 0.655906 -0.520048
1 4.29975 4.29975 4.29975 0.196898 0.718338 0.667249
1 7.16625 4.29975 4.29975 -0.456987 0.689616 -0.561776
1 10.0328 4.29975 4.29975 0.0262656 0.267748 -0.963131
1 12.8992 4.29975 4.29975 -0.905667 -0.167421 0.389535
1 15.7657 4.29975 4.29975 -0.757144 0.313708 -0.572993
1 18.6322 4.29975 4.29975 -0.171856 -0.522395 -0.835206
1 21.4987 4.29975 4.29975 -0.726529 -0.678153 0.110744
1 1.43325 7.16625 4.29975 0.183421 0.706039 0.684007
1 4.29975 7.16625 4.29975 -0.499942 0.661592 0.558887
1 7.16625 7.16625 4.29975 -0.61415 -0.615037 -0.49452
1 10.0328 7.16625 4.29975 0.60502 -0.717151 0.345897
1 12.8992 7.16625 4.29975 -0.240769 -0.152548 -0.958519
1 15.7657 7.16625 4.29975 -0.793913 0.564341 -0.226319
1 18.6322 7.16625 4.29975 0.818063 0.532918 -0.216269
1 21.4987 7.16625 4.29975 0.0344452 -0.549066 -0.835069
1 1.43325 10.0328 4.29975 -0.695636 0.422614 -0.580938
1 4.29975 10.0328 4.29975 -0.936695 -0.166445 -0.308057
1 7.16625 10.0328 4.29975 0.802413 0.596478 0.0186395
1 10.0328 10.0328 4.29975 0.0754063 -0.614951 -0.784952
1 12.8992 10.0328 4.29975 -0.47246 -0.25671 0.843138
1 15.7657 10.0328 4.29975 0.675091 0.548449 -0.493412
1 18.6322 10.0328 4.29975 0.0746596 0.753181 -0.653563
1 21.4987 10.0328 4.29975 -0.71416 0.320706 -0.622192
1 1.43325 12.8992 4.29975 0.636089 0.511214 -0.577972
1 4.29975 12.8992 4.29975 0.380169 0.763857 -0.521531
1 7.16625 12.8992 4.29975 0.621065 -0.560532 -0.547797
1 10.0328 12.8992 4.29975 0.964575 -0.244536 -0.0989841
1 12.8992 12.8992 4.29975 -0.307677 -0.583391 -0.751658
1 15.7657 12.8992 4.29975 0.50682 0.636088 -0.581829
1 18.6322 12.8992 4.29975 -0.138628 -0.377387 0.915621
1 21.4987 12.8992 4.29975 0.959763 -0.170585 -0.223059
1 1.43325 15.7657 4.29975 -0.789465 0.603929 0.109614
1 4.29975 15.7657 4.29975 -0.000435096 0.99764 -0.0686573
1 7.16625 15.7657 4.29975 -0.216624 -0.806454 -0.550187
1 10.0328 15.7657 4.29975 -0.0975775 -0.853984 -0.511068
1 12.8992 15.7657 4.29975 0.533468 0.683791 -0.497838
1 15.7657 15.7657 4.29975 -0.206118 0.38965 0.897602
1 18.6322 15.7657 4.29975 -0.864368 0.492603 -0.101041
1 21.4987 15.7657 4.29975 -0.816149 -0.0193582 -0.577516
1 1.43325 18.6322 4.29975 0.730026 0.644505 -0.227321
1 4.29975 18.6322 4.29975 -0.113148 0.757544 -0.642904
1 7.16625 18.6322 4.29975 -0.133239 0.91883 0.371481
1 10.0328 18.6322 4.29975 -0.939151 0.189641 -0.286412
1 12.8992 18.6322 4.29975 0.485152 0.500397 -0.717098
1 15.7657 18.6322 4.29975 0.72927 0.457735 -0.508571
1 18.6322 18.6322 4.29975 0.70008 -0.206042 0.683692
1 21.4987 18.6322 4.29975 0.0132741 0.222104 -0.974933
1 1.43325 21.4987 4.29975 0.910245 0.182925 -0.371474
1 4.29975 21.4987 4.29975 -0.812198 0.573977 0.104327
1 7.16625 21.4987 4.29975 -0.669424 -0.481764 -0.565487
1 10.0328 21.4987 4.29975 0.420578 -0.862461 -0.281559
1 12.8992 21.4987 4.29975 0.404785 0.506453 0.761351
1 15.7657 21.4987 4.29975 0.249461 0.428386 0.868479
1 18.6322 21.4987 4.29975 0.792455 0.603599 -0.0876584
1 21.4987 21.4987 4.29975 -0.449015 0.680226 0.579377
ITEM: TIMESTEP
20
ITEM: NUMBER OF ATOMS
256
ITEM: BOX BOUNDS pp pp pp
0.0000000000000000e+00 2.2931999999999999e+01
0.0000000000000000e+00 2.2931999999999999e+01
0.0000000000000000e+00 5.7329999999999997e+00
ITEM: ATOMS type x y z c_outsp[1] c_outsp[2] c_outsp[3]
1 -4.70566e-07 -1.26499e-06 2.81324e-06 -0.154644 0.185905 -0.970322
1 1.43325 1.43325 1.43325 -0.99987 0.00252824 0.0159017
1 2.8665 5.09463e-06 2.26281e-06 -0.945583 -0.324269 -0.0268635
1 4.29975 1.43325 1.43325 -0.951603 -0.294633 0.0874255
1 5.733 -6.32784e-07 -1.67798e-06 -0.398626 -0.531079 -0.747698
1 7.16625 1.43325 1.43325 -0.831357 0.140033 0.537807
1 8.5995 -1.18644e-06 7.78607e-07 -0.590431 0.478407 -0.650014
1 10.0328 1.43325 1.43325 0.949446 -0.255342 0.182629
1 11.466 1.1046e-06 1.83843e-06 0.454298 -0.813191 0.363778
1 12.8992 1.43325 1.43325 0.806941 -0.073462 0.586046
1 14.3325 7.79031e-07 2.08405e-06 0.510322 -0.70717 0.489369
1 15.7657 1.43325 1.43325 0.475942 -0.395443 0.78556
1 17.199 -6.94481e-07 -1.26492e-06 0.341838 0.875458 0.341643
1 18.6322 1.43325 1.43325 -0.0989115 0.788865 -0.606555
1 20.0655 1.26906e-06 5.37427e-07 0.438982 0.897123 0.0496567
1 21.4987 1.43325 1.43325 0.736087 0.595647 0.321528
1 1.26566e-07 2.8665 1.8247e-06 -0.128845 0.560055 -0.818375
1 2.8665 2.86649 2.40099e-06 -0.24692 -0.772079 0.585598
1 5.733 2.8665 -5.10647e-07 -0.723238 0.31937 -0.612315
1 8.5995 2.8665 -2.92713e-06 -0.22174 -0.0507687 -0.973783
1 11.466 2.86649 1.09423e-06 0.928391 0.175673 0.32746
1 14.3325 2.8665 -4.25878e-06 -0.365194 0.759588 -0.538201
1 17.199 2.8665 -5.00238e-07 0.828992 0.512694 -0.223421
1 20.0655 2.8665 3.29483e-06 -0.38212 0.365256 0.848866
1 1.43325 4.29975 1.43325 -0.579399 0.530214 -0.619007
1 4.29975 4.29975 1.43325 -0.323801 -0.773299 -0.545126
1 7.16625 4.29975 1.43325 0.907729 0.200615 0.368486
1 10.0327 4.29975 1.43325 -0.712175 -0.69758 0.0786663
1 12.8992 4.29975 1.43325 -0.7288 0.28456 -0.622797
1 15.7657 4.29976 1.43325 -0.500809 -0.485562 0.716533
1 18.6322 4.29975 1.43325 -0.178767 -0.899184 -0.399388
1 21.4987 4.29975 1.43325 0.241695 0.880341 0.408147
1 3.13515e-06 5.733 1.58046e-06 0.475228 0.641262 0.602446
1 1.43325 7.16625 1.43325 0.650164 0.3597 -0.669255
1 2.8665 5.733 4.15177e-06 0.335532 0.238486 -0.911341
1 4.29975 7.16625 1.43325 0.943975 0.329924 -0.00781606
1 5.733 5.733 -4.2758e-06 -0.611597 0.665516 -0.42783
1 7.16625 7.16625 1.43325 -0.460953 -0.588014 -0.664652
1 8.5995 5.733 9.87234e-07 -0.395856 -0.71515 -0.576071
1 10.0327 7.16625 1.43324 -0.399452 -0.753101 -0.522759
1 11.466 5.733 8.52774e-07 -0.771589 -0.634805 -0.0409052
1 12.8993 7.16625 1.43325 0.410561 0.613423 0.67465
1 14.3325 5.733 -1.04589e-06 -0.814378 0.35538 0.458796
1 15.7658 7.16625 1.43325 -0.522969 -0.707282 -0.475663
1 17.199 5.733 2.93971e-06 0.263733 -0.794529 -0.546963
1 18.6323 7.16625 1.43325 0.764979 0.129359 -0.63093
1 20.0655 5.73301 1.65898e-07 0.61653 -0.348054 -0.706222
1 21.4988 7.16625 1.43325 0.850609 -0.486607 -0.199192
1 -1.77487e-06 8.5995 2.20907e-06 -0.456903 -0.545805 0.702379
1 2.8665 8.5995 3.31553e-06 0.385737 0.112078 -0.915776
1 5.733 8.5995 2.09618e-06 -0.127276 -0.881035 -0.455608
1 8.5995 8.5995 -7.95887e-07 0.854678 0.055983 0.516132
1 11.466 8.5995 -2.32526e-06 -0.188974 -0.752717 -0.63064
1 14.3325 8.5995 5.40717e-07 0.0571851 0.903555 0.42464
1 17.199 8.5995 3.19794e-06 0.086677 -0.804105 -0.588134
1 20.0655 8.5995 -5.50033e-06 -0.584463 0.535828 -0.609337
1 1.43325 10.0328 1.43325 -0.60083 0.291234 0.744437
1 4.29975 10.0327 1.43325 0.658752 -0.555352 -0.507572
1 7.16625 10.0327 1.43325 0.673809 -0.407687 0.616257
1 10.0328 10.0327 1.43325 0.336369 -0.936792 0.0963135
1 12.8993 10.0327 1.43325 0.731954 -0.284619 0.61906
1 15.7657 10.0328 1.43325 0.500643 0.137284 0.854699
1 18.6322 10.0327 1.43325 0.929627 -0.185467 -0.318426
1 21.4988 10.0327 1.43325 -0.534509 -0.498488 0.682502
1 1.52399e-06 11.466 -4.44353e-06 -0.463342 -0.113591 -0.878869
1 1.43325 12.8992 1.43325 -0.730905 -0.682372 0.012076
1 2.8665 11.466 5.56608e-06 -0.311505 -0.615367 0.724077
1 4.29975 12.8992 1.43325 0.739723 -0.669447 -0.0681975
1 5.733 11.466 -3.52101e-06 0.477326 0.800396 -0.362666
1 7.16625 12.8993 1.43325 0.541545 -0.407944 0.735059
1 8.5995 11.466 -2.11412e-06 -0.540096 -0.0855785 -0.837241
1 10.0327 12.8992 1.43325 -0.025926 0.704706 -0.709025
1 11.466 11.466 -2.20819e-06 -0.699097 -0.693675 0.173429
1 12.8992 12.8992 1.43325 -0.419079 0.712225 0.563124
1 14.3325 11.466 1.26763e-06 0.923237 0.141484 0.357234
1 15.7658 12.8992 1.43325 -0.861341 -0.411453 0.297989
1 17.199 11.466 -2.45498e-06 -0.579719 0.808236 0.103341
1 18.6322 12.8993 1.43325 -0.166067 -0.596091 0.785555
1 20.0655 11.466 -2.54539e-06 -0.5109 0.840037 -0.182534
1 21.4987 12.8993 1.43325 -0.017421 0.567653 0.823083
1 8.3999e-07 14.3325 4.9364e-07 -0.684773 -0.27603 -0.674458
1 2.8665 14.3325 -3.44349e-06 -0.142918 0.677459 0.721543
1 5.733 14.3325 5.42836e-06 0.735475 0.0656842 0.67436
1 8.5995 14.3325 6.09409e-06 0.299617 0.9475 0.111681
1 11.466 14.3325 5.15856e-06 -0.385062 0.865093 0.321468
1 14.3325 14.3325 -4.61459e-06 -0.420601 0.457197 -0.783623
1 17.199 14.3325 -1.13548e-06 0.713156 0.172346 -0.679489
1 20.0655 14.3325 -1.4874e-08 0.486767 0.661055 -0.571021
1 1.43325 15.7657 1.43325 -0.073509 -0.99554 -0.0591275
1 4.29975 15.7657 1.43325 0.488239 0.717616 0.496639
1 7.16625 15.7657 1.43324 0.044738 0.558939 0.828001
1 10.0328 15.7657 1.43325 -0.296373 0.611169 -0.733918
1 12.8993 15.7658 1.43325 0.217854 -0.775499 0.592571
1 15.7657 15.7658 1.43326 -0.172792 -0.43039 0.88595
1 18.6322 15.7658 1.43325 0.520968 -0.586459 -0.620209
1 21.4988 15.7658 1.43325 -0.648965 0.631972 -0.423622
1 -3.98631e-06 17.199 -3.0182e-06 0.164461 0.978039 -0.12803
1 1.43325 18.6323 1.43325 0.180514 -0.718473 0.671723
1 2.8665 17.199 -5.7393e-06 -0.649395 0.538386 -0.537053
1 4.29975 18.6322 1.43325 -0.161102 0.852776 0.49681
1 5.73301 17.199 3.39675e-06 -0.219219 -0.766567 0.603588
1 7.16625 18.6322 1.43325 -0.499808 -0.270196 0.822913
1 8.5995 17.199 3.42203e-06 0.896047 -0.116044 0.428525
1 10.0327 18.6323 1.43325 0.599057 0.220062 0.769873
1 11.466 17.199 1.98235e-06 -0.906203 0.109557 0.408404
1 12.8993 18.6323 1.43325 -0.51585 -0.590402 0.620745
1 14.3325 17.199 -7.41196e-06 0.934334 0.280179 -0.22027
1 15.7657 18.6323 1.43325 -0.638127 -0.594991 0.48865
1 17.199 17.199 2.90921e-07 0.024043 -0.0537289 -0.998266
1 18.6323 18.6323 1.43325 -0.00781649 -0.972814 0.231458
1 20.0655 17.199 -8.59393e-07 -0.0831474 0.742867 -0.664255
1 21.4988 18.6322 1.43325 0.571098 0.75359 -0.325498
1 2.77027e-06 20.0655 1.24009e-06 0.374512 -0.645957 0.665192
1 2.8665 20.0655 3.20282e-06 -0.531603 -0.631994 0.563899
1 5.733 20.0655 -4.71298e-06 -0.628922 -0.435754 -0.643875
1 8.5995 20.0655 3.62824e-06 0.668653 -0.439422 0.599843
1 11.466 20.0655 -4.2602e-06 0.0343585 0.997177 -0.0667708
1 14.3325 20.0655 7.52518e-06 -0.728037 -0.675393 -0.1175
1 17.199 20.0655 5.10052e-06 -0.458957 -0.174985 -0.871056
1 20.0655 20.0655 4.11758e-06 -0.374153 -0.846802 -0.378069
1 1.43325 21.4988 1.43326 -0.181075 0.331236 -0.92601
1 4.29975 21.4987 1.43325 0.526857 0.679254 0.510917
1 7.16625 21.4988 1.43325 0.826888 0.325056 -0.458906
1 10.0328 21.4988 1.43325 -0.665433 -0.726661 -0.170771
1 12.8993 21.4988 1.43325 -0.249956 -0.966664 0.0555162
1 15.7658 21.4987 1.43325 -0.161291 0.967077 -0.196844
1 18.6322 21.4987 1.43325 -0.281315 0.262363 -0.923053
1 21.4988 21.4987 1.43325 0.206799 -0.535583 -0.818771
1 2.72033e-07 -1.27698e-06 2.8665 0.223651 -0.547205 -0.806565
1 2.8665 -1.32492e-06 2.8665 -0.203583 -0.237483 -0.949819
1 5.733 8.93031e-07 2.8665 -0.392041 -0.760884 -0.517068
1 8.5995 3.27522e-06 2.8665 0.57599 0.813978 0.0753349
1 11.466 2.38452e-07 2.8665 -0.0472614 -0.194701 0.979723
1 14.3325 -2.71438e-06 2.8665 -0.504542 -0.855643 -0.11538
1 17.199 -2.60597e-06 2.8665 -0.580147 0.010753 -0.814441
1 20.0655 -8.06775e-07 2.8665 -0.663243 -0.743445 -0.0860177
1 1.1102e-06 2.8665 2.8665 0.287317 -0.413498 -0.863984
1 2.8665 2.8665 2.8665 0.807006 0.339405 -0.483265
1 5.733 2.8665 2.8665 -0.704663 -0.490347 0.512844
1 8.5995 2.8665 2.8665 -0.544745 0.661277 0.515718
1 11.466 2.86651 2.8665 -0.325032 0.503447 -0.800559
1 14.3325 2.86649 2.8665 0.846417 0.474171 -0.242364
1 17.199 2.8665 2.8665 0.0286382 -0.883138 -0.468239
1 20.0655 2.8665 2.8665 -0.692051 0.47438 0.544086
1 -1.94312e-06 5.733 2.8665 -0.740151 -0.349671 -0.574375
1 2.8665 5.733 2.8665 -0.771297 0.293762 0.564629
1 5.733 5.733 2.8665 0.15437 0.396776 -0.904842
1 8.5995 5.733 2.8665 -0.261792 0.696257 -0.668349
1 11.466 5.733 2.8665 -0.174054 0.879888 -0.442156
1 14.3325 5.733 2.8665 0.0250885 -0.4442 0.895576
1 17.199 5.733 2.8665 -0.642467 0.748007 -0.166497
1 20.0655 5.733 2.8665 -0.561931 0.754004 -0.340164
1 -3.23943e-06 8.5995 2.8665 0.186661 -0.70016 -0.689155
1 2.8665 8.5995 2.86649 0.852606 -0.1047 -0.511958
1 5.733 8.5995 2.86649 0.573495 -0.75872 -0.308946
1 8.5995 8.5995 2.8665 -0.712185 0.135799 0.688732
1 11.466 8.5995 2.8665 0.992584 0.0927171 0.0786139
1 14.3325 8.5995 2.8665 -0.848774 -0.248239 -0.466863
1 17.199 8.5995 2.86649 0.342987 -0.93849 -0.039946
1 20.0655 8.5995 2.8665 -0.211196 0.827735 0.519857
1 -1.54164e-06 11.466 2.8665 0.682376 -0.730982 -0.00539974
1 2.8665 11.466 2.8665 -0.809695 0.0931251 -0.579416
1 5.733 11.466 2.8665 -0.462502 -0.522057 -0.716623
1 8.5995 11.466 2.8665 0.269917 0.883851 -0.382038
1 11.466 11.466 2.8665 -0.428882 0.803014 -0.413798
1 14.3325 11.466 2.8665 -0.825207 -0.472399 0.309633
1 17.199 11.466 2.8665 -0.202559 0.805613 0.556739
1 20.0655 11.466 2.8665 -0.293827 0.657466 -0.693833
1 2.42188e-06 14.3325 2.8665 -0.526532 -0.839626 -0.133386
1 2.86651 14.3325 2.86651 0.414122 0.898684 0.144464
1 5.733 14.3325 2.86651 -0.675888 -0.299529 -0.673393
1 8.5995 14.3325 2.8665 -0.613112 -0.732739 0.295275
1 11.466 14.3325 2.86651 0.653365 -0.637313 -0.408591
1 14.3325 14.3325 2.8665 0.770632 -0.579265 -0.265665
1 17.199 14.3325 2.8665 -0.838123 -0.539419 0.0810939
1 20.0655 14.3325 2.8665 0.45593 0.629938 0.628734
1 -5.76013e-06 17.199 2.8665 0.0365143 0.611576 -0.790342
1 2.8665 17.199 2.8665 -0.0736272 0.541451 0.837502
1 5.733 17.199 2.8665 0.692011 -0.296319 -0.658267
1 8.5995 17.199 2.86651 -0.645918 -0.279099 -0.710559
1 11.466 17.199 2.8665 0.503463 0.401611 -0.765005
1 14.3325 17.199 2.8665 0.88973 -0.216953 0.401638
1 17.199 17.199 2.8665 0.961249 0.0857061 0.262021
1 20.0655 17.199 2.8665 0.852189 -0.523229 -0.00250862
1 -1.2343e-06 20.0655 2.8665 0.0125621 0.438355 -0.898714
1 2.8665 20.0655 2.8665 -0.535977 -0.587356 -0.606418
1 5.733 20.0655 2.8665 -0.340542 0.798159 -0.496965
1 8.5995 20.0655 2.8665 0.545509 -0.681073 0.488425
1 11.466 20.0655 2.8665 0.801733 0.361233 0.476167
1 14.3325 20.0655 2.86649 -0.774836 -0.0762198 0.62755
1 17.199 20.0655 2.86649 -0.565129 -0.147937 -0.81163
1 20.0655 20.0655 2.8665 0.617349 -0.707211 -0.344576
1 1.43325 1.43325 4.29975 0.133533 -0.56056 0.817277
1 4.29975 1.43325 4.29975 -0.573251 0.797003 -0.190184
1 7.16625 1.43325 4.29975 0.970871 0.190726 0.145025
1 10.0328 1.43325 4.29975 -0.471653 -0.475537 0.742569
1 12.8992 1.43325 4.29975 0.722699 0.654491 0.222144
1 15.7657 1.43325 4.29975 -0.243441 0.740044 0.626954
1 18.6322 1.43325 4.29975 0.527842 -0.814149 0.241958
1 21.4988 1.43325 4.29975 0.378576 -0.144091 -0.914286
1 1.43325 4.29975 4.29975 0.55145 0.647055 -0.526519
1 4.29975 4.29975 4.29975 0.22016 0.728363 0.648858
1 7.16625 4.29975 4.29975 -0.448009 0.687868 -0.571074
1 10.0327 4.29975 4.29975 0.0236873 0.24623 -0.968922
1 12.8993 4.29976 4.29975 -0.899395 -0.153935 0.409136
1 15.7658 4.29975 4.29975 -0.757035 0.314848 -0.572511
1 18.6322 4.29975 4.29975 -0.18242 -0.526765 -0.830206
1 21.4987 4.29975 4.29975 -0.738753 -0.661908 0.126973
1 1.43325 7.16625 4.29975 0.201247 0.700183 0.685014
1 4.29975 7.16624 4.29975 -0.477853 0.674243 0.563074
1 7.16625 7.16625 4.29975 -0.62451 -0.604078 -0.495052
1 10.0328 7.16626 4.29975 0.586458 -0.72724 0.356637
1 12.8992 7.16625 4.29975 -0.242934 -0.17144 -0.954773
1 15.7657 7.16625 4.29975 -0.785471 0.567654 -0.246585
1 18.6323 7.16625 4.29975 0.831159 0.509087 -0.22362
1 21.4987 7.16625 4.29975 0.0238505 -0.557076 -0.830119
1 1.43325 10.0328 4.29975 -0.679012 0.431531 -0.593905
1 4.29975 10.0328 4.29975 -0.935485 -0.132442 -0.327608
1 7.16625 10.0328 4.29975 0.813345 0.581099 0.0281762
1 10.0328 10.0328 4.29975 0.0750669 -0.611473 -0.787697
1 12.8993 10.0328 4.29975 -0.480015 -0.250322 0.840788
1 15.7658 10.0328 4.29975 0.666647 0.550316 -0.502728
1 18.6323 10.0328 4.29975 0.0648397 0.745103 -0.66379
1 21.4987 10.0328 4.29975 -0.711878 0.320728 -0.62479
1 1.43325 12.8993 4.29975 0.645536 0.492662 -0.583581
1 4.29975 12.8993 4.29975 0.37865 0.762399 -0.524759
1 7.16625 12.8992 4.29975 0.608582 -0.565768 -0.556358
1 10.0327 12.8993 4.29975 0.958984 -0.263114 -0.105458
1 12.8993 12.8993 4.29975 -0.314447 -0.581067 -0.750656
1 15.7657 12.8993 4.29976 0.505158 0.630922 -0.588857
1 18.6322 12.8993 4.29975 -0.107927 -0.370598 0.922501
1 21.4988 12.8993 4.29975 0.952598 -0.191537 -0.23637
1 1.43325 15.7658 4.29975 -0.780195 0.612885 0.125172
1 4.29974 15.7657 4.29975 -0.0079967 0.997818 -0.0655383
1 7.16625 15.7658 4.29974 -0.207079 -0.805822 -0.554769
1 10.0327 15.7658 4.29974 -0.110263 -0.853928 -0.508575
1 12.8993 15.7658 4.29975 0.542092 0.685745 -0.485685
1 15.7658 15.7658 4.29975 -0.194467 0.367701 0.909384
1 18.6323 15.7657 4.29975 -0.857199 0.508188 -0.0834013
1 21.4988 15.7658 4.29975 -0.828893 0.00515071 -0.559383
1 1.43325 18.6322 4.29975 0.733271 0.63487 -0.243421
1 4.29975 18.6323 4.29975 -0.114267 0.744772 -0.657463
1 7.16625 18.6323 4.29975 -0.137452 0.918169 0.371582
1 10.0328 18.6322 4.29975 -0.941079 0.190199 -0.279634
1 12.8992 18.6322 4.29975 0.473442 0.508251 -0.719398
1 15.7658 18.6322 4.29975 0.738261 0.452528 -0.500189
1 18.6323 18.6322 4.29974 0.683904 -0.241097 0.688583
1 21.4988 18.6322 4.29975 0.0110105 0.238066 -0.971187
1 1.43324 21.4987 4.29975 0.919638 0.147014 -0.364216
1 4.29975 21.4987 4.29975 -0.797955 0.59872 0.069306
1 7.16624 21.4988 4.29975 -0.674106 -0.470262 -0.569592
1 10.0327 21.4987 4.29975 0.439596 -0.849105 -0.292875
1 12.8992 21.4987 4.29975 0.378427 0.511711 0.771327
1 15.7657 21.4988 4.29975 0.249964 0.445254 0.859806
1 18.6322 21.4988 4.29975 0.804977 0.586418 -0.0901488
1 21.4987 21.4988 4.29975 -0.436512 0.691278 0.57584
ITEM: TIMESTEP
40
ITEM: NUMBER OF ATOMS
256
ITEM: BOX BOUNDS pp pp pp
0.0000000000000000e+00 2.2931999999999999e+01
0.0000000000000000e+00 2.2931999999999999e+01
0.0000000000000000e+00 5.7329999999999997e+00
ITEM: ATOMS type x y z c_outsp[1] c_outsp[2] c_outsp[3]
1 -1.94924e-06 -4.98941e-06 1.13418e-05 -0.149216 0.195515 -0.969283
1 1.43326 1.43324 1.43323 -0.999248 0.0387544 0.00121089
1 2.86651 2.05631e-05 8.9354e-06 -0.948594 -0.316312 -0.0108067
1 4.29976 1.43325 1.43324 -0.958373 -0.274434 0.0787871
1 5.733 -2.42098e-06 -6.78639e-06 -0.413152 -0.544202 -0.730171
1 7.16624 1.43326 1.43326 -0.826005 0.166746 0.538435
1 8.59948 -4.74454e-06 3.12093e-06 -0.577698 0.484871 -0.656632
1 10.0328 1.43324 1.43324 0.952568 -0.250137 0.173335
1 11.466 4.48248e-06 7.42405e-06 0.466109 -0.808415 0.359454
1 12.8992 1.43324 1.43324 0.804212 -0.0770833 0.589323
1 14.3325 3.31139e-06 8.36225e-06 0.539565 -0.693174 0.477891
1 15.7657 1.43325 1.43324 0.48009 -0.405414 0.777916
1 17.199 -2.78558e-06 -5.12405e-06 0.347459 0.872812 0.34274
1 18.6322 1.43324 1.43324 -0.102648 0.787645 -0.607518
1 20.0655 5.06164e-06 2.09638e-06 0.458093 0.887264 0.0539766
1 21.4987 1.43326 1.43323 0.75339 0.58003 0.309788
1 5.94871e-07 2.86651 7.43449e-06 -0.135196 0.55925 -0.817901
1 2.86651 2.86648 9.42983e-06 -0.249234 -0.757327 0.603605
1 5.73299 2.8665 -1.9018e-06 -0.732224 0.308827 -0.607021
1 8.5995 2.86652 -1.17304e-05 -0.225298 -0.0520295 -0.9729
1 11.466 2.86646 4.31303e-06 0.928348 0.173166 0.328914
1 14.3325 2.86652 -1.70412e-05 -0.385466 0.753316 -0.532851
1 17.199 2.86648 -1.99768e-06 0.833591 0.50741 -0.218312
1 20.0655 2.8665 1.30658e-05 -0.378983 0.365158 0.850313
1 1.43324 4.29975 1.43325 -0.572511 0.54511 -0.612443
1 4.29975 4.29974 1.43324 -0.342304 -0.774941 -0.531314
1 7.16625 4.29975 1.43326 0.918119 0.186326 0.349772
1 10.0327 4.29977 1.43324 -0.731985 -0.674894 0.0933657
1 12.8992 4.29975 1.43325 -0.738319 0.276703 -0.615077
1 15.7657 4.29977 1.43326 -0.506056 -0.475783 0.719401
1 18.6322 4.29976 1.43325 -0.193751 -0.897623 -0.395896
1 21.4987 4.29974 1.43324 0.257988 0.881578 0.395301
1 1.24854e-05 5.733 6.33728e-06 0.497255 0.625091 0.601663