ITEM: TIMESTEP
3000
ITEM: NUMBER OF ATOMS
2867
ITEM: BOX BOUNDS pp pp pp
2.0000000000000000e+01 8.0000000000000000e+01
2.0000000000000000e+01 8.0000000000000000e+01
0.0000000000000000e+00 1.0000000000000000e+01
ITEM: ATOMS id x y z c_outsp[1] c_outsp[2] c_outsp[3]
1 29.4827 21.6441 1.73376 -0.728917 0.409256 0.548808
2 32.7504 21.3417 1.03944 0.286487 0.907171 -0.308164
817 33.9184 20.6145 2.30923 0.255875 0.256659 -0.932016
4 35.5577 21.0627 1.86591 -0.664624 0.206678 -0.718024
6 38.4338 21.2494 1.24754 -0.873217 0.468187 0.135248
7 39.7513 20.4734 -0.0669543 0.108556 -0.352704 0.929417
8 42.1124 21.8451 0.804077 -0.705977 -0.0359585 -0.707322
821 39.7041 20.1091 3.10668 0.290615 0.117837 0.949556
10 44.4624 21.5346 1.38232 0.597295 0.637634 -0.486478
823 42.7125 20.0112 3.15527 0.00175637 0.28357 0.95895
12 48.02 22.0148 1.84871 0.0454027 -0.829263 0.557011
825 45.3331 20.3028 2.25884 0.623816 0.660268 -0.41821
13 48.8577 20.466 0.107723 -0.000343638 -0.552479 0.833527
14 49.8802 21.3112 1.15778 0.640092 -0.585996 0.49688
827 49.3783 19.8739 2.25543 0.847996 0.124722 0.515118
42 48.7212 22.4506 0.355317 0.454421 -0.539339 0.708954
16 52.5207 21.6097 0.993748 -0.0132252 0.792546 -0.609669
829 51.4278 20.0443 2.26882 0.702608 0.710701 -0.0353063
18 55.4065 22.2374 1.56012 -0.318965 0.743409 0.587881
831 54.6068 20.104 2.99998 -0.554027 -0.828062 -0.0858335
861 54.9069 22.6629 2.54184 -0.657134 0.70893 0.256111
20 59.1212 21.1754 1.48581 0.349816 -0.287211 -0.891706
833 57.3148 19.8514 2.39757 -0.193232 -0.319983 0.927509
863 57.4545 22.6127 2.90728 0.551031 0.678913 0.485224
22 61.5717 21.4967 1.81482 0.41257 -0.463794 -0.784016
835 60.6494 20.4888 2.46533 0.826126 -0.334562 -0.453414
23 62.7582 20.4888 0.409158 -0.13794 -0.982196 -0.127532
24 64.0879 20.9453 1.0042 -0.687375 -0.536999 -0.489027
867 62.7545 22.4925 3.51488 0.112788 0.916862 0.382939
26 67.4961 21.674 0.934563 -0.140343 0.874886 0.463549
871 68.384 22.6185 2.97714 0.350666 -0.935416 0.0450628
873 71.6949 22.4633 2.6563 0.795545 0.575536 0.189383
27 27.8562 24.2297 1.68886 -0.578932 -0.785281 0.219478
28 28.4035 23.148 0.472067 -0.651351 0.668666 0.358647
29 30.0786 24.3155 1.9362 0.869661 -0.485706 -0.0882037
843 28.806 23.5008 2.7509 0.0137862 -0.656898 0.753853
31 33.4457 24.8648 1.72184 0.375372 0.276602 -0.88464
845 31.3382 22.7574 2.63156 -0.27282 0.877265 0.394936
32 34.5176 23.3921 0.0935865 -0.718858 -0.295747 -0.629108
33 35.567 24.2186 1.20707 0.372872 -0.322098 -0.870183
847 34.1257 23.1046 2.7727 0.980955 -0.194065 -0.0081277
34 37.2614 23.095 0.278375 0.0264329 0.957856 -0.286029
35 38.1744 24.3345 1.3772 0.0776036 0.992991 0.0891438
849 37.8083 22.6681 2.97968 -0.913254 -0.251221 0.32071
37 41.5348 24.8521 0.923048 -0.783318 0.5518 0.286233
851 40.6919 23.0895 2.3103 -0.468735 0.225914 -0.853962
886 40.3571 25.4155 2.51659 -0.768173 0.501284 0.398277
39 44.2304 24.1606 1.66612 -0.636755 0.457279 -0.620837
853 42.4543 23.6096 2.82454 0.21357 -0.904039 -0.370272
41 47.6993 24.4498 0.967491 -0.614857 0.154925 0.773272
855 45.7814 23.4314 2.49685 -0.511246 0.16572 -0.843306
43 50.0772 23.8289 1.58025 0.789041 0.5892 0.173948
857 49.0536 23.2677 3.19959 0.0287967 -0.162187 0.98634
76 48.8377 25.3024 0.158666 -0.995267 0.0077898 0.0968637
45 52.917 24.5554 1.04336 0.513246 0.787229 -0.341832
859 51.339 23.1477 3.31807 -0.193185 -0.0131463 0.981074
47 56.1223 24.3858 1.82758 -0.198172 0.823848 0.531039
49 58.6847 24.0236 2.08954 -0.992162 -0.0668354 -0.105579
50 60.594 23.1697 0.0300679 -0.165556 0.721955 -0.671842
51 61.6067 24.2131 1.08548 -0.318095 0.689277 -0.650932
865 60.5918 22.7064 2.6587 0.539642 0.811014 0.225928
53 64.4055 24.1785 0.936103 -0.234507 -0.904059 -0.35733
55 67.2913 24.3858 1.01723 0.759245 0.0933777 -0.644072
869 66.2093 22.7992 2.4009 0.320908 0.196288 -0.926547
56 69.2619 23.4893 0.58668 -0.00732196 0.937423 0.348115
57 70.6812 24.0376 1.51994 0.426191 0.798205 -0.425711
906 69.0308 25.225 2.45085 0.625783 0.494791 -0.602974
58 72.7903 24.937 1.87794 -0.68978 0.140098 -0.710335
92 71.6212 25.3165 0.417685 0.0634728 0.451665 -0.889927
910 75.008 25.4699 2.6999 0.106948 -0.783478 0.612147
59 25.0129 27.0249 1.60237 0.428955 0.330363 -0.840748
876 25.2585 25.8172 2.50738 -0.251403 0.0527746 -0.966443
61 27.4741 27.9748 2.1121 0.838226 -0.531901 0.12024
915 25.8209 28.0847 2.56745 0.904014 -0.101338 -0.415318
63 30.1616 26.8856 1.55673 0.848666 -0.471893 0.238921
878 28.8659 26.5412 2.55313 0.986861 -0.0256043 0.159528
880 31.0525 25.757 3.16202 0.210305 -0.689785 0.692797
917 28.6514 28.0544 3.07732 0.790827 -0.348079 0.503422
919 31.1352 28.2805 3.41851 0.871344 0.490616 -0.00745149
65 32.647 27.0605 1.67973 0.318638 -0.672119 0.668375
66 34.3953 26.4267 0.0481423 0.245691 -0.646039 0.722682
67 35.7231 27.4953 2.0084 0.854159 -0.0181533 -0.519695
882 35.0813 25.6066 2.27029 0.621304 0.639579 -0.452682
69 39.1177 26.8532 1.50541 0.204662 0.706684 0.677282
884 37.4703 26.2386 2.59219 -0.42567 -0.124556 -0.896265
71 41.2511 27.6802 1.49072 0.294 0.593916 -0.748885
73 44.7313 27.4785 0.961014 -0.908815 -0.0992727 0.405215
888 43.5074 25.9081 2.60985 -0.748719 0.170187 -0.640668
75 47.2964 27.5932 2.19139 -0.973266 0.229656 0.00344058
890 46.0709 25.9963 2.22524 -0.748748 0.644258 0.15591
77 50.1633 27.3256 1.19984 0.549528 0.779792 0.299905
892 48.0938 26.1594 2.45444 -0.938805 0.343493 0.0256626
78 51.5334 26.3298 0.458435 0.68929 0.71832 0.0943216
79 53.6216 27.3355 0.933356 0.392488 0.883386 -0.256091
894 51.317 26.2322 2.311 0.732347 -0.583157 0.351561
933 51.9414 28.1607 3.29916 0.930698 0.320082 0.177057
80 54.8054 25.469 0.194224 0.425085 0.373496 -0.824502
81 55.3257 27.3169 1.64021 0.356491 0.821515 0.445002
896 53.9996 26.1776 3.31615 -0.61127 0.185368 -0.769407
82 57.8563 25.6442 0.50235 0.48097 0.122528 -0.868133
83 59.4017 27.1538 1.39163 -0.898305 0.404962 0.170452
898 57.3764 25.9194 3.16366 -0.603724 0.732026 0.315682
937 58.0467 28.1227 3.44441 0.966167 -0.233905 -0.108675
85 61.7015 27.3105 1.37431 -0.59326 -0.560363 -0.577959
900 60.2461 26.0608 2.29312 -0.88772 -0.131358 0.441247
86 63.1273 26.0507 0.0320151 -0.639192 -0.247098 -0.728269
87 64.6615 26.8718 1.76429 0.0660267 -0.794404 -0.60379
902 63.1172 26.022 3.33251 -0.531115 0.699374 0.478324
89 67.0109 27.2248 2.07497 -0.369162 0.168674 -0.91393
904 65.4304 25.8872 2.75861 -0.536975 0.386515 0.749843
91 70.9894 27.6745 1.28576 0.804986 0.373799 -0.460729
129 68.5472 28.2976 0.335753 0.453866 0.448132 -0.770184
93 73.3125 27.8083 1.80015 -0.0230065 -0.277881 -0.96034
908 71.2578 25.7854 2.79954 -0.0646365 0.845647 -0.529814
95 75.39 27.0349 1.06819 -0.172781 -0.805439 -0.566935
96 21.3803 30.4304 1.6688 -0.153804 -0.599681 -0.78532
97 22.64 28.5991 0.431711 -0.757449 0.44909 0.473908
98 24.4956 30.2352 1.83285 0.680807 0.709593 0.181603
913 23.3974 28.5528 3.42582 0.304994 0.101371 -0.946944
100 27.4706 29.7084 1.33409 0.716821 -0.482244 0.503596
102 30.2289 29.9304 0.937128 0.516786 0.089421 -0.851432
104 33.4647 29.4655 0.841947 -0.37132 0.0449253 0.927418
105 34.1226 28.9551 0.350646 -0.0657024 -0.596078 0.800234
106 35.9442 29.5364 1.82876 -0.201095 -0.471434 -0.858668
921 34.7596 29.0072 2.32366 -0.822997 -0.459192 -0.334392
108 38.5825 29.5928 1.13883 -0.321359 0.856594 -0.403703
923 37.7668 28.4701 3.14976 0.136291 -0.158011 -0.977986
110 41.8601 30.5827 1.06 0.183374 0.660037 -0.728509
925 40.667 29.1727 2.98392 -0.0678636 0.274314 -0.959243
112 44.8735 30.8146 1.18543 0.755152 -0.512734 -0.408471
927 43.1419 28.5373 3.28043 0.294353 -0.834372 -0.466026
113 46.2031 28.4376 0.113922 -0.681429 -0.39063 0.61892
114 47.5461 29.7188 1.36086 -0.49445 0.74101 0.454338
929 46.3349 28.3957 2.49159 -0.96484 0.145563 0.218848
116 50.5632 29.8739 1.41248 0.830821 0.0680321 -0.552366
931 48.0092 28.2888 2.78601 -0.972116 0.147861 -0.18201
154 49.1319 31.1824 0.231828 0.455072 -0.372459 -0.808816
117 51.5891 28.488 0.216423 0.741734 -0.0772049 -0.666236
118 53.4929 30.6431 1.30354 -0.234766 0.819358 -0.523009
156 52.306 31.0481 0.595175 -0.502239 0.860537 0.0850382
120 55.942 30.4459 1.95699 -0.374715 -0.105542 -0.921113
935 54.236 28.4329 3.13523 0.971015 0.144683 -0.190253
121 57.8366 28.8854 0.037348 0.107445 -0.41325 0.904256
122 58.1708 30.7185 1.48361 0.898975 -0.157489 -0.408707
124 61.7223 29.6914 1.02319 -0.139686 0.192832 0.971238
939 60.555 28.6762 2.82712 -0.421124 0.29018 -0.859331
979 59.7731 31.1072 3.0805 0.861337 -0.408148 0.302513
125 62.9028 29.2626 0.350643 -0.945661 -0.31032 0.0970948
126 64.9081 30.5111 1.27993 -0.166424 -0.972792 0.161177
941 63.0374 28.5011 3.4066 -0.917501 0.397613 0.00981799
127 65.9401 28.8475 0.255383 -0.933898 0.190367 -0.302646
128 67.0411 30.4898 1.65714 0.859833 -0.490024 -0.143402
943 66.3012 28.9408 2.55836 0.160312 0.941272 -0.297164
983 65.6526 31.026 3.04954 0.374795 -0.881232 0.288027
130 70.1883 30.5476 1.87909 -0.17243 0.327355 -0.929035
945 68.9003 29.2254 3.22474 0.81782 -0.198666 0.540094
985 68.8241 31.0743 3.16111 0.297322 0.156908 0.941796
132 72.7624 30.2228 1.77371 -0.792548 0.487723 -0.366052
947 72.0178 29.2431 2.40271 -0.637537 0.49887 -0.58709
170 71.9948 30.866 0.396293 -0.366781 0.834692 -0.410805
134 75.4707 29.7143 1.1765 -0.564208 -0.815845 -0.126753
949 75.0501 28.6107 2.21318 -0.288329 -0.623768 -0.726484
951 77.8575 28.663 2.64667 -0.513733 0.814158 0.270601
135 21.7922 33.3831 1.59675 0.334125 0.88791 -0.316191
136 23.2822 31.2821 0.19845 0.983313 0.0817845 -0.162503
137 24.7336 32.4433 1.24594 -0.914996 0.400634 0.0476895
953 23.3391 31.2096 2.64045 0.871845 0.437498 0.220184
180 25.4404 34.0098 0.198899 -0.691581 0.719421 0.0644188
138 25.6347 32.046 0.119192 0.253774 -0.955505 -0.150359
139 26.9411 32.7546 2.08653 0.90448 -0.365209 0.220316
955 26.3358 31.9955 2.84371 0.91812 -0.362326 0.160546
141 29.6289 32.4966 1.09588 -0.969366 0.203681 0.13727
957 29.1195 32.0163 3.21585 -0.675587 0.65072 -0.346619
143 32.4696 32.4422 1.03743 0.335536 0.488497 -0.805473
959 31.5484 32.0051 3.31437 0.162673 -0.845094 -0.509267
144 34.1759 31.7598 0.559062 0.0648701 0.92559 0.372928
145 35.7597 32.9688 1.79055 0.207518 0.886385 0.413834
961 34.0173 31.3314 3.43975 -0.235273 0.813482 -0.531877
1003 33.9678 33.9132 3.24998 -0.675777 -0.106273 0.729405
147 39.2165 33.0999 1.04445 0.650591 0.470359 -0.596233
963 37.9166 31.9021 3.47248 0.0341097 0.17477 -0.984018
148 39.5987 31.6426 0.103537 -0.200455 0.428198 -0.881172
149 41.6252 32.4274 1.9793 0.0175223 0.331923 -0.943144
965 40.8276 32.2032 2.85118 -0.187276 0.25696 -0.948103
150 43.6175 31.9238 0.438555 0.216484 0.907878 -0.359016
151 44.4913 32.6608 1.08416 -0.613867 0.587373 -0.527409
967 42.6261 32.182 2.21111 -0.118922 0.478796 -0.869834
153 47.871 33.482 1.4918 -0.227842 0.956181 0.183863
969 45.9464 31.7729 3.27115 0.726935 -0.659314 0.192018
155 49.9471 33.5757 1.06932 -0.522881 0.832576 0.182793
971 48.1263 31.3303 2.64269 0.688994 0.402988 -0.602402
157 53.5973 33.465 1.76787 0.000941486 0.963018 0.269436
973 51.0366 31.6794 2.68436 0.372713 0.384365 0.8446
1015 51.2466 33.8687 3.40161 -0.0137765 0.438898 0.898431
159 55.487 32.6415 1.51012 0.464244 0.326938 -0.823158
975 54.0013 32.0133 3.48877 0.978985 0.193318 -0.0649342
1017 55.142 33.9233 3.35853 0.610469 0.753489 0.244096
161 58.4834 33.5037 1.094 0.497238 0.359123 -0.7898
977 57.9924 32.1348 3.31538 0.992086 -0.0522295 -0.11418
163 61.361 33.0391 0.941845 0.968911 -0.209195 0.132092
165 64.207 33.1962 1.8377 0.946026 -0.322305 0.0339842
981 63.1385 31.2731 3.17578 -0.720498 0.0626241 -0.690623
1023 63.1225 33.8265 3.28929 0.67258 -0.0228664 -0.739671
167 67.6426 32.9076 1.9386 0.380539 0.406578 -0.830593
168 69.0184 31.4765 0.289638 -0.723531 -0.174702 -0.667819
169 70.2668 33.6254 1.13912 -0.352479 0.874573 -0.332987
171 72.851 33.6164 1.1759 -0.922844 0.271599 0.273116
987 71.1409 31.725 2.84786 -0.684327 0.698633 0.208827
172 74.1926 31.4321 0.277861 0.154719 0.231223 0.96052
173 76.7171 32.6416 1.84123 0.478746 -0.615842 -0.625733
989 74.202 31.4994 2.75516 -0.154281 0.968626 0.194835
174 77.1645 31.6508 0.38425 -0.431101 -0.70547 0.562552
175 78.8401 33.3241 1.56472 -0.187139 0.640063 -0.745183
991 77.2741 31.381 3.01812 0.179934 -0.19557 -0.964042
177 21.7821 35.6328 1.59564 0.113989 0.983183 0.142678
993 20.6819 34.1871 2.77731 0.793423 0.594408 -0.130995
179 24.4181 36.1768 1.94181 -0.00269515 -0.997236 0.0742534
995 23.5386 34.2048 2.54171 0.378552 -0.0676307 -0.923106
997 25.3135 34.3216 3.17824 0.298674 -0.535065 -0.790253
181 27.5435 35.7574 1.22833 -0.00334848 0.485274 0.874356
182 28.7102 34.7827 0.26383 -0.857034 -0.404501 0.319173
183 30.7318 35.5472 1.54218 -0.845165 0.027974 0.533772
999 28.6508 34.6475 3.03905 -0.0123847 0.823775 -0.566782
185 32.7765 35.5474 1.26 -0.969472 0.181763 -0.164582
1001 31.6046 34.3658 3.31492 -0.117583 -0.897512 -0.425025
187 36.3559 35.3812 1.40328 0.109803 0.843909 -0.525129
1045 35.0158 36.8605 3.01999 -0.495097 0.796974 -0.345992
189 38.6987 35.2904 1.65837 0.653561 0.489563 -0.577222
1005 37.3429 34.1585 3.31962 -0.501197 0.715462 -0.486739
191 41.3236 36.2168 0.863241 0.868549 0.410404 0.277833
1007 39.8586 34.5483 2.78484 -0.0555433 -0.0679946 -0.996138
193 44.8868 35.7185 1.6392 -0.554868 -0.827908 0.0817918
1009 42.823 34.5296 2.86019 0.143362 0.89099 -0.430795
194 45.4745 34.0756 0.520062 -0.977187 0.0116208 -0.212062
195 47.9471 36.3459 1.4592 -0.555205 0.827205 -0.0864869
1011 46.1688 34.6201 3.15797 -0.832164 -0.535591 -0.143686
196 48.9743 34.3684 0.291955 -0.48449 0.43553 0.758672
197 49.7963 35.8409 1.69803 -0.672808 0.730163 0.119127
1013 49.0861 35.1154 2.81334 -0.75952 0.636191 0.135609
199 53.2875 35.3149 1.4306 -0.329032 0.478284 0.814237
240 51.191 36.8106 0.239714 -0.518457 0.842668 -0.145304
1057 51.313 36.6899 2.36738 0.59708 0.212616 -0.773492
200 54.9892 34.6748 -0.0207025 -0.948622 0.0569167 -0.311251
201 56.5324 36.1634 1.44278 0.708166 0.124214 -0.695034
202 57.055 34.604 0.285667 0.136109 0.213313 -0.967457
203 58.273 35.4817 1.63929 0.915948 0.179401 -0.358962
1019 57.0318 34.9966 2.91336 0.906837 0.129038 -0.401243
204 60.5372 34.2917 0.261286 0.296062 -0.939387 -0.172915
205 62.0892 36.5965 1.86863 -0.2679 -0.83173 -0.486267
1021 60.0187 34.646 2.62428 0.322559 -0.826994 -0.460475
1063 60.267 36.7833 2.87803 0.286522 -0.955757 0.0665846
206 63.6759 34.3542 0.426761 0.318773 -0.543818 -0.776303
207 64.3872 36.0811 0.982545 0.631549 0.0941367 -0.7696
1065 63.6248 36.7988 3.07431 0.288604 0.735886 -0.612519
209 68.1731 35.6776 1.69817 -0.769968 0.153358 -0.619379
1025 66.446 34.0896 2.37491 -0.474486 0.398066 -0.785116
210 69.3295 34.578 0.434429 -0.906309 0.272841 0.322742
211 70.6368 35.9476 0.885297 -0.972032 0.207836 0.109354
1027 69.0544 34.4325 2.64269 -0.61871 0.760113 -0.198559
212 72.3999 34.4214 0.186227 -0.961067 -0.226528 0.158222
213 73.47 35.6479 0.864295 -0.872378 -0.234438 0.428947
1029 71.6495 34.2687 2.77925 0.389064 0.752978 -0.53071
214 74.1885 34.9506 0.444479 -0.917484 -0.203304 0.341892
215 76.2631 35.3017 0.822524 -0.848088 0.231007 0.476846
1031 74.4805 34.5862 2.17609 -0.928901 -0.285446 0.235932
1073 74.1539 36.7167 3.27915 -0.289173 0.569591 0.76938
176 79.5286 34.5894 0.331234 -0.632975 0.643606 -0.430249
217 79.179 36.1884 1.44776 -0.66157 0.475282 0.580027
1033 76.8989 34.9764 3.20658 0.591343 -0.554599 -0.585435
219 21.6323 38.1272 1.9313 -0.551802 -0.596612 0.582726
1035 20.6725 37.4186 2.73214 -0.559958 -0.569027 0.602208
1037 22.4027 37.7012 2.62062 -0.616444 -0.587281 0.524498
220 23.5623 37.4342 0.615388 0.0301269 -0.587208 -0.808876
221 24.5889 38.4424 1.83645 0.926954 0.0440302 -0.372582
223 26.8121 38.8508 1.88543 0.576653 0.22762 0.78464
1039 26.0233 37.7622 2.48307 0.556609 0.249797 0.79233
1081 26.0388 39.5902 3.22345 0.43866 0.35856 0.824022
225 30.7166 38.924 0.802457 -0.709036 0.592723 0.382031
1041 28.9637 37.3225 3.05621 -0.473342 0.304694 -0.826504
227 33.6106 38.5388 1.83338 -0.117266 0.850846 0.512163
1043 31.924 37.145 3.43429 -0.39851 0.0911826 0.91262
1085 31.4873 39.6276 3.2158 -0.00119059 0.786685 0.617354
229 35.4799 39.3039 1.56612 -0.891588 0.389177 0.231543
230 37.0294 37.1948 0.410468 -0.583661 0.28972 0.758552
231 38.8332 39.0845 1.94991 0.262081 0.893105 0.365618
1047 37.306 36.8959 2.69532 0.777825 0.582291 -0.236486
233 41.4329 38.0944 0.912135 -0.849441 -0.5211 0.0830949
1049 40.5863 36.9835 3.3611 -0.613234 0.598955 0.514973
235 44.8266 38.1276 1.73834 -0.990052 -0.138146 -0.0266794
1051 42.6195 37.711 2.29183 -0.96503 -0.244274 -0.0951136
237 47.6242 38.5081 0.928636 0.259445 0.757063 -0.59962
1053 45.9953 37.5991 2.29631 -0.753686 -0.524799 0.395655
1095 46.1378 39.5985 3.39548 0.252495 -0.643344 0.722741
239 50.0057 38.7783 0.889044 0.18863 0.68205 -0.70656
1055 48.5162 37.1658 2.67434 -0.681508 0.730648 -0.0412387
241 52.8691 38.6585 1.48287 0.281213 0.890152 0.358537
243 55.4242 38.706 0.895536 -0.0776211 0.690823 0.718845
1059 54.1303 37.5958 2.87811 -0.539079 0.816765 0.205641
244 57.761 37.2906 0.111953 0.509018 0.606673 -0.610613
245 58.6936 39.0315 1.54951 -0.362378 0.835036 -0.414001
1061 57.0027 37.2411 2.25995 0.759874 0.367199 -0.53643
246 59.9879 37.1983 0.422959 0.684525 0.311913 0.658889
247 61.5604 38.2715 1.91511 -0.922229 -0.370658 0.110029
248 63.3315 37.506 0.0590712 -0.449798 0.162013 0.878313
249 64.1695 38.983 0.863518 0.535892 0.336011 0.774543
251 67.0086 38.451 1.53275 -0.785415 0.617703 -0.0395659
1067 65.707 36.8107 2.94181 -0.0941377 0.984517 -0.147866
1109 65.5236 39.5079 2.57697 -0.111275 0.987851 0.108485
253 70.1187 38.3076 1.43842 -0.843881 -0.0686873 0.532116
1069 68.9711 37.1018 2.42458 -0.649756 0.574791 -0.497426
255 72.7936 38.3562 1.50247 -0.529064 -0.818809 -0.222806
1071 72.0596 37.7456 3.10171 -0.601778 -0.644613 0.471527
256 74.6472 37.399 0.267507 0.539425 0.841429 0.0319231
257 75.7719 39.2318 1.32597 0.195692 -0.77428 0.601826
259 79.3706 39.3644 1.2103 -0.124713 -0.928504 -0.349752
1075 77.3184 37.7396 2.60815 -0.401796 -0.7184 0.567856
260 20.2106 40.0853 0.439338 0.156855 -0.920499 -0.357879
261 21.9484 41.9655 1.34206 0.532979 0.472982 -0.701585
1077 20.5265 40.5119 2.45624 0.907671 -0.0395085 0.417818
262 22.6906 40.3176 0.506834 0.872709 0.241502 0.42433
263 24.002 42.0073 1.10214 0.633795 0.665513 -0.394203
1079 23.1598 40.29 3.48416 -0.993218 0.00721709 0.116042
264 25.6597 40.8128 0.0435152 -0.0660293 0.893483 0.444217
265 26.827 41.8537 1.63 -0.634695 -0.386925 0.668918
267 29.6458 41.4563 1.67465 0.236846 0.220866 -0.946109
1083 28.806 40.4242 3.07419 -0.484782 0.0842996 0.870563
268 32.1443 39.7999 0.219834 0.134494 0.98592 -0.0993603
269 32.9596 41.7097 1.27769 0.504874 0.860362 0.0698526
1087 33.8771 40.0362 2.59375 0.0899569 0.994236 0.058333
271 36.0557 41.3942 1.43442 -0.519271 0.696993 -0.494528
272 38.0171 39.7719 0.611915 0.690996 -0.11564 0.713549
273 38.3363 41.2397 1.95893 0.78585 0.390679 0.479385
1089 37.1612 40.197 2.90297 -0.74985 0.540577 0.381447
274 39.6076 40.5398 0.437166 0.607078 -0.581197 0.541909
275 41.1273 41.9284 1.75136 0.123941 -0.281791 0.951437
1091 39.9487 39.6909 2.78776 -0.737819 0.291761 0.608687
277 44.6162 41.1147 1.90929 -0.667603 -0.583661 -0.462218
1093 43.375 40.6805 3.08308 -0.902528 -0.332792 -0.273302
278 45.5963 40.4463 0.148306 0.264798 -0.77904 -0.568312
279 47.9205 41.5037 1.77952 -0.00530041 -0.733992 0.679138
280 49.3222 39.6885 0.52743 0.00216195 0.758706 -0.65143
281 49.7011 41.1835 0.764324 0.7126 0.498195 -0.493967
1097 49.3059 39.7051 2.30789 0.223043 0.861101 -0.4569
282 50.9706 40.4908 0.562814 0.369257 0.735401 -0.568186
283 53.0704 42.2635 1.33358 -0.6679 -0.0429724 0.743009
1099 51.7323 40.8567 2.57765 0.609404 0.400817 0.684085
285 55.3804 41.4608 0.763475 -0.956455 -0.234418 0.173902
1101 54.3335 40.8521 3.39651 -0.689608 0.417139 0.591976
287 59.444 42.2608 0.911879 0.298801 -0.107971 0.948188
1103 57.8294 40.7166 2.44588 -0.115077 -0.11898 0.986205
289 61.8522 41.4413 1.90572 -0.00149415 0.395231 0.918581
1105 59.9698 40.2574 3.06364 -0.520162 -0.767633 -0.374395
291 63.916 41.456 1.33381 0.0881694 0.687993 -0.720341
1107 63.1979 39.9294 2.47102 0.402696 0.544352 0.735878
293 67.5035 41.7145 1.03876 -0.973517 -0.0620083 -0.220044
295 69.7754 41.2205 0.996563 -0.97097 -0.239065 -0.00806025
1111 69.2055 40.5382 2.6014 -0.714894 -0.042769 0.697924
296 72.1634 39.9445 0.568164 -0.163413 -0.785378 -0.597057
297 73.3503 41.4113 1.22241 -0.141609 -0.194398 -0.970647
1113 71.9854 39.9371 2.78305 -0.242088 -0.960508 -0.137181
299 76.5429 41.1922 0.864672 -0.267733 -0.941984 0.202447
1115 74.2661 40.13 3.30928 -0.901078 -0.432753 0.0280005
301 78.7596 41.0096 0.985145 -0.105004 -0.983068 0.150169
1117 77.834 40.7225 2.44495 -0.65755 -0.750749 -0.0632797
303 22.0564 44.1025 0.847524 -0.689807 0.706844 -0.156643
1121 22.3802 43.4561 2.6853 -0.427761 0.8176 0.385423
304 22.6934 42.7615 0.31408 0.244956 0.821779 -0.514466
305 23.8664 44.7782 1.39499 0.198144 0.219703 -0.955233
307 27.0257 44.6174 0.795797 -0.391639 0.889709 0.234598
1123 25.8778 42.9815 2.71128 -0.782823 0.146741 0.604694
308 28.3528 43.5268 0.0131446 -0.375259 0.920178 -0.111595
309 30.4812 45.1515 1.38411 0.729061 0.402347 0.553703
1125 28.7679 42.5074 2.66812 0.928594 0.0724329 0.36396
311 32.9052 44.5156 1.63124 0.964555 0.051392 0.258828
1127 31.3233 42.7886 3.41409 0.672599 0.575418 -0.465301
312 34.1454 42.8969 0.167855 0.761075 0.526648 -0.378692
313 35.877 44.6763 0.998975 -0.61622 -0.156575 -0.771853
1129 34.1432 42.6987 3.48931 0.656461 0.733822 0.174824
314 36.8349 43.0827 0.34097 -0.133892 -0.667661 0.732326
315 39.342 44.8326 1.14137 0.738378 -0.162598 -0.654492
1131 37.2045 43.3517 3.38974 0.551853 -0.288133 -0.782584
317 41.1615 44.7932 1.38716 0.811641 0.186744 -0.553503
1133 40.2208 43.2514 3.25731 0.90671 0.412356 0.0885438
318 42.9353 42.8861 0.0967642 -0.460502 -0.316318 0.829386
319 43.9165 44.066 1.65174 -0.329882 -0.559884 -0.760071
1135 43.4722 43.4529 2.58168 -0.366661 -0.918037 -0.15089
321 47.4107 44.4004 2.05116 0.651874 0.0617059 0.755812
1137 45.9091 43.4747 3.18776 -0.0714407 0.873561 -0.481443
322 48.1824 42.9161 0.18776 0.266413 -0.930277 -0.252207
323 49.8624 44.9291 1.69042 -0.0279412 -0.998626 0.0443424
1139 48.2469 43.2072 3.15157 0.183241 -0.925563 0.331296
324 51.2401 43.2554 0.63887 -0.348506 0.0881634 0.933151
325 53.3003 44.1844 1.8294 -0.716848 -0.64462 0.265695
1141 51.9825 43.5656 2.81375 -0.597926 -0.272488 0.753813
326 54.1409 42.4549 0.311909 -0.762441 -0.539234 0.357645
327 56.195 43.7967 1.69467 -0.87626 -0.263973 0.403095
1143 54.3212 42.6018 2.57943 -0.762184 0.0277058 0.646767
328 57.315 43.5357 0.0466002 0.343691 -0.935287 -0.0843452
329 58.9097 44.5723 1.51086 -0.298904 -0.673218 0.676338
1145 57.1406 43.0236 3.32896 -0.847755 -0.263027 -0.460573
330 60.4172 43.6577 0.601232 -0.180162 -0.436549 0.881457
331 61.5782 44.0072 1.38637 -0.27548 -0.765558 0.581405
1147 59.8411 43.4425 2.25896 -0.152238 -0.617572 0.77164
333 64.4416 43.9467 1.79838 0.322828 -0.730113 -0.60226
1149 63.6843 43.1183 3.55361 -0.854689 0.0222902 0.518662
335 67.2164 44.3321 1.0824 0.653243 -0.243845 0.716808
1151 65.4243 42.4946 3.32237 -0.921147 0.340473 0.188591
337 70.0513 44.1023 1.00924 -0.949722 0.0182791 0.312559
1153 69.2953 43.5888 2.38166 -0.0804899 -0.293175 -0.952665
338 71.3391 43.0045 0.00550843 -0.856363 -0.516374 -0.00013114
339 72.6858 45.0585 0.725568 -0.652607 -0.0660288 -0.754814
1155 71.5898 43.5627 2.78024 -0.618524 -0.563158 0.547979
341 75.5971 44.2435 1.79397 0.172402 -0.0177952 -0.984866
1157 74.7048 43.6079 3.19149 -0.809574 -0.492956 -0.318723
1119 79.4792 42.7042 3.11327 0.430968 -0.55556 0.711069
342 77.9939 43.1141 0.277039 -0.971621 0.176456 0.157527
343 78.6054 44.5369 1.21102 0.265453 -0.220458 -0.93858
1159 78.0872 43.3596 2.99955 -0.285198 -0.496508 0.819843
345 21.9343 47.7281 1.69058 0.140128 -0.932861 0.331865
1161 20.2899 45.8127 2.4862 0.349367 -0.744122 0.569409
1163 22.6551 45.4779 3.45165 -0.68505 0.256984 0.681664
347 24.3707 47.8365 1.60298 -0.146749 0.108639 -0.98319
348 25.4863 46.4409 -0.0785135 0.477232 -0.130631 0.869014
349 26.9797 47.3341 1.8121 0.999493 0.0194031 -0.0252318
1165 25.8191 45.6803 3.29198 0.725645 0.622792 0.292524
351 29.9263 47.2102 0.760668 0.177499 0.82096 0.542696
1167 28.5779 45.4594 2.82346 0.984913 0.0529013 -0.164763
352 31.0667 45.6231 0.483881 0.720868 0.289188 0.629857
353 32.5036 47.0939 2.06383 0.772229 0.502149 -0.389241
1169 31.512 45.9696 3.48246 -0.493817 0.562778 -0.662893
355 36.0812 46.8688 1.44212 0.741976 0.646998 0.175687
1171 34.125 45.749 2.94063 0.471827 0.771703 -0.426443
356 36.9708 45.4984 0.49771 -0.106196 -0.707898 -0.698285
357 39.3957 46.8059 1.65288 0.9592 0.271103 -0.080234
1173 37.813 45.3835 2.62615 0.510787 -0.758073 -0.405489
358 39.8899 45.875 0.564437 0.689969 0.041223 -0.722664
359 41.1999 46.916 1.53596 0.990179 -0.12971 -0.0521665
1175 40.7353 45.4959 2.17776 0.864086 -0.371094 -0.340065
360 42.6917 45.8732 0.215917 -0.0528504 0.656572 -0.752409
361 45.0696 47.351 1.87147 -0.393187 -0.8622 -0.319397
1177 42.6705 46.1662 2.76965 0.656802 -0.749688 0.0811132
363 47.9632 47.3358 1.80701 0.263507 0.882066 -0.390544
1179 46.0654 46.2759 3.25528 -0.725884 -0.17261 -0.665806
365 50.1624 47.0313 0.799586 -0.0718007 -0.981548 -0.177221
1181 49.0493 45.632 2.78909 0.436731 -0.552739 -0.709751
367 52.9061 47.2313 0.842331 0.399012 -0.899301 -0.179014
1183 51.401 45.454 2.95672 -0.195329 -0.200111 0.960105
368 54.3058 46.0663 0.292066 -0.491065 0.0846582 0.867
369 55.5669 46.8959 1.34427 -0.489338 -0.297701 0.819709
1185 54.7375 45.3824 3.19972 -0.180304 0.672175 -0.718103
371 58.2663 47.8876 1.93998 -0.963838 -0.265017 -0.0279587
1187 57.6138 46.2592 3.40287 0.691609 -0.303276 0.655516
373 61.5921 46.7991 1.39522 0.552038 0.0454334 0.83258
1189 60.17 45.7467 2.97588 0.61186 0.151008 0.776417
375 64.934 47.9608 1.79191 -0.583732 0.0266939 0.811507
1191 62.698 45.9479 3.49631 -0.000100383 0.852055 0.523453
376 66.6327 46.2546 0.538913 0.631705 -0.750912 -0.192563
377 66.9566 47.9029 0.945675 0.112826 -0.704079 0.701101
1193 66.5746 46.2048 3.57434 -0.933258 -0.203732 0.295843
379 70.6548 47.0858 1.2355 -0.447153 -0.50581 -0.737706
1195 69.4558 45.4359 2.5353 0.180622 -0.102332 -0.978215
380 72.1893 45.8119 0.408671 -0.293068 -0.00857062 -0.956053
381 73.327 47.228 1.39147 0.0889285 0.185771 -0.978561
1197 71.7915 45.8852 2.59441 0.927741 -0.15596 -0.339077
382 73.9606 45.3618 0.523096 -0.736638 0.0653488 -0.673123
383 76.3938 47.0886 2.0773 -0.09608 0.964159 0.247318
1199 75.2304 45.9313 3.31681 -0.202967 0.891739 -0.404483
384 77.4938 46.169 0.548442 -0.962902 0.255157 0.0878308
385 79.4603 47.3237 1.31812 0.937462 -0.193671 -0.289235
1201 77.1587 46.4296 2.29731 0.0239019 0.937602 0.346889
386 20.1817 48.4421 0.463709 0.798486 -0.553699 -0.236299
387 21.3151 49.5062 1.55628 0.395196 -0.88934 0.229987
1203 19.917 48.7591 2.19972 0.765905 -0.565344 -0.306228
389 25.0802 49.95 1.77182 -0.797945 0.134913 -0.587437
1205 22.7432 48.4718 3.25729 0.326283 -0.209576 0.921747
390 25.9869 49.2533 0.0987729 -0.76828 0.518918 0.374794
391 27.099 49.9227 1.62291 -0.635343 0.262151 -0.726372
1207 26.5209 48.4513 2.63606 0.811099 0.153868 -0.564307
1209 28.2603 49.0814 3.0654 0.837263 -0.518286 -0.174271
392 28.8654 48.8953 0.254102 -0.902191 0.00543258 -0.431302
393 30.6565 49.8831 1.48885 0.212822 0.439317 -0.872758
394 31.3036 49.0857 0.177675 -0.542009 0.834347 -0.100455
395 33.6325 49.9794 1.42432 -0.614507 -0.114339 -0.780582
1211 31.5394 49.2426 3.42593 -0.209195 0.242964 -0.947209
397 35.7933 50.6963 1.14041 -0.169946 -0.0753029 -0.982572
1213 35.1661 48.623 3.22644 0.106195 0.719168 -0.686673
398 37.6048 48.6956 0.514921 0.986406 0.0221187 0.162831
399 38.674 49.6645 2.1135 0.964435 -0.202251 -0.170178
1215 37.6248 48.3374 2.466 0.357925 -0.319638 -0.877338
400 40.3899 49.3367 -0.0212523 0.616682 -0.66727 0.417677
401 42.0778 50.7665 1.62984 0.891062 -0.353385 0.28483
1217 40.3102 48.7069 3.23631 0.679881 0.553025 0.481586
403 44.4724 49.8732 1.32236 0.168048 -0.689119 -0.704894
1219 43.0105 49.0518 3.36095 0.605634 -0.388213 0.694621
405 47.4267 50.8271 1.41844 -0.00580519 0.448987 -0.893519
1221 46.2024 48.9312 2.52202 -0.284346 -0.935179 -0.211159
407 49.8142 50.4943 1.25583 -0.509534 -0.859812 -0.0331582
1223 48.312 48.9117 3.11929 -0.614729 0.786648 0.0573907
408 51.7068 48.1946 0.38029 0.458166 -0.229017 -0.858857
409 52.686 49.8613 2.1067 -0.595596 0.801105 -0.0591264
1225 52.1117 48.9709 2.64908 -0.296119 0.84905 -0.437524
411 55.7513 50.3798 2.02627 0.507715 -0.63389 -0.583446
1227 54.999 49.2924 3.20988 0.244557 -0.841175 -0.482304
413 59.2276 49.7729 1.44932 -0.619811 -0.706207 0.342209
1229 57.3218 49.0034 2.54208 -0.0532794 -0.810153 -0.583792
414 60.6339 49.3582 -0.0896459 0.0585004 -0.976404 -0.207876
415 62.1758 49.5607 1.89097 0.155025 -0.985336 0.071278
1231 59.9016 48.949 2.61062 -0.641967 0.518083 -0.565215
416 63.5029 48.8991 0.401521 0.585606 0.331657 0.739641
417 64.3068 49.8547 1.3887 0.331075 -0.904893 0.267504
1233 63.3473 49.1914 3.39713 0.999333 -0.00321733 0.0363712
418 65.6753 48.4597 0.0754664 -0.496311 -0.505303 0.705935
419 67.359 50.0574 1.69889 0.0733036 0.897804 0.434252
1235 66.4131 49.2173 3.23032 -0.417118 -0.908475 0.0261913
420 69.1862 48.33 0.0210734 -0.644185 -0.616433 0.45281
421 69.9093 50.6717 2.02136 0.499738 -0.187228 0.845699
1237 69.5112 49.3931 3.33996 0.325752 0.495244 0.805369
422 71.3199 48.5088 0.17334 -0.816273 0.286124 -0.501828
423 72.7295 50.6889 0.930669 -0.421385 -0.850824 -0.3139
1239 72.0129 48.987 3.28905 -0.147031 -0.981988 -0.118666
424 74.7734 49.3601 0.322698 0.751996 -0.644621 -0.137714
425 76.2054 50.567 1.32757 0.754407 0.0766814 0.651913
1241 74.4105 48.7259 3.03205 -0.142768 0.977817 0.153271
426 77.8704 48.4961 0.555124 0.959396 -0.0941835 -0.265875
427 79.2177 49.8143 0.949239 0.670615 -0.429638 -0.604721