ITEM: TIMESTEP
0
ITEM: NUMBER OF ATOMS
2867
ITEM: BOX BOUNDS pp pp pp
2.0000000000000000e+01 8.0000000000000000e+01
2.0000000000000000e+01 8.0000000000000000e+01
0.0000000000000000e+00 1.0000000000000000e+01
ITEM: ATOMS id x y z c_outsp[1] c_outsp[2] c_outsp[3]
1 30.135 21.525 1.435 0.2778 0.445733 0.850969
2 33.005 21.525 1.435 0.434526 0.601561 -0.670307
3 34.44 20.09 0 -0.0406946 -0.971061 -0.23534
4 35.875 21.525 1.435 -0.0743844 0.954518 -0.288725
817 34.44 20.09 2.87 -0.333455 -0.694531 -0.637522
5 37.31 20.09 0 -0.630521 -0.76019 0.156699
6 38.745 21.525 1.435 -0.860265 0.024028 0.50928
819 37.31 20.09 2.87 0.8443 0.331096 -0.421348
7 40.18 20.09 0 -0.738381 0.120574 -0.663517
8 41.615 21.525 1.435 -0.572936 0.756493 -0.315377
821 40.18 20.09 2.87 0.695869 -0.0876511 0.712799
9 43.05 20.09 0 -0.636741 -0.491776 -0.593899
10 44.485 21.525 1.435 0.480619 0.83103 0.279991
823 43.05 20.09 2.87 0.677338 0.54682 0.49214
11 45.92 20.09 0 -0.631423 0.18728 -0.752483
12 47.355 21.525 1.435 0.422897 0.637449 0.644063
825 45.92 20.09 2.87 0.733023 0.0156986 0.680022
13 48.79 20.09 0 0.320078 0.615028 0.720618
14 50.225 21.525 1.435 0.169147 -0.791944 -0.586698
827 48.79 20.09 2.87 0.583308 -0.533318 -0.612637
15 51.66 20.09 0 -0.299357 0.572427 0.763357
16 53.095 21.525 1.435 -0.322294 -0.417835 0.849436
829 51.66 20.09 2.87 0.747758 0.659736 -0.0748751
17 54.53 20.09 0 -0.728201 -0.295239 -0.618512
18 55.965 21.525 1.435 0.0305997 0.867931 0.495742
831 54.53 20.09 2.87 0.739738 0.158147 -0.654046
19 57.4 20.09 0 0.199344 -0.492815 0.846992
20 58.835 21.525 1.435 0.352224 -0.49411 -0.794855
833 57.4 20.09 2.87 -0.463719 -0.803734 0.372795
21 60.27 20.09 0 0.981151 -0.18802 0.044634
22 61.705 21.525 1.435 -0.768144 0.637796 -0.0563026
835 60.27 20.09 2.87 -0.717446 -0.533752 -0.447638
23 63.14 20.09 0 -0.0932914 -0.484067 -0.870043
24 64.575 21.525 1.435 0.299228 0.889053 -0.346479
837 63.14 20.09 2.87 -0.50441 0.662384 0.553911
25 66.01 20.09 0 -0.473263 0.215075 -0.854263
26 67.445 21.525 1.435 0.857258 -0.330412 -0.394887
839 66.01 20.09 2.87 0.0308752 0.975082 -0.219686
27 27.265 24.395 1.435 -0.964168 0.231652 -0.129295
28 28.7 22.96 0 0.0829477 -0.547031 0.832992
29 30.135 24.395 1.435 0.812586 -0.582323 0.0245788
843 28.7 22.96 2.87 -0.295983 0.712045 0.6367
30 31.57 22.96 0 -0.172914 0.683652 0.709028
31 33.005 24.395 1.435 0.766401 -0.18858 -0.614057
845 31.57 22.96 2.87 -0.705966 -0.705231 0.0652743
32 34.44 22.96 0 -0.162734 -0.976952 0.138141
33 35.875 24.395 1.435 0.667179 -0.5531 -0.498951
847 34.44 22.96 2.87 -0.421276 0.318896 -0.849019
34 37.31 22.96 0 0.759515 -0.404767 -0.509215
35 38.745 24.395 1.435 0.57322 0.497568 0.651034
849 37.31 22.96 2.87 -0.870871 0.472186 -0.13647
36 40.18 22.96 0 -0.0188408 0.365735 -0.930528
37 41.615 24.395 1.435 -0.32291 0.945949 -0.0301558
851 40.18 22.96 2.87 0.31873 -0.351363 0.880315
38 43.05 22.96 0 -0.982921 0.0638668 -0.172588
39 44.485 24.395 1.435 -0.522103 0.634743 -0.569658
853 43.05 22.96 2.87 0.346526 -0.310322 0.885223
40 45.92 22.96 0 -0.706292 0.426785 0.564806
41 47.355 24.395 1.435 0.0832912 0.683401 -0.725277
855 45.92 22.96 2.87 0.212085 0.767336 0.605157
42 48.79 22.96 0 -0.115599 -0.736412 0.666584
43 50.225 24.395 1.435 0.309924 0.69191 -0.65208
857 48.79 22.96 2.87 0.0461199 0.923299 -0.381302
44 51.66 22.96 0 -0.552303 -0.311815 -0.773132
45 53.095 24.395 1.435 -0.491612 0.505958 0.708748
859 51.66 22.96 2.87 -0.948578 0.225933 0.221709
46 54.53 22.96 0 0.640169 0.70421 -0.307038
47 55.965 24.395 1.435 -0.580161 0.675992 -0.454366
861 54.53 22.96 2.87 -0.832889 0.546199 0.0892359
48 57.4 22.96 0 0.411501 0.605294 0.681385
49 58.835 24.395 1.435 -0.798912 -0.139131 -0.585134
863 57.4 22.96 2.87 0.558165 0.537629 0.631987
50 60.27 22.96 0 -0.388262 -0.852963 -0.348865
51 61.705 24.395 1.435 -0.709313 -0.698045 0.0980256
865 60.27 22.96 2.87 -0.447644 -0.509537 -0.734838
52 63.14 22.96 0 0.269167 -0.805879 -0.527359
53 64.575 24.395 1.435 0.77378 -0.23301 -0.589042
867 63.14 22.96 2.87 -0.968451 0.247388 0.0300231
54 66.01 22.96 0 0.626878 0.694122 -0.353863
55 67.445 24.395 1.435 0.66887 -0.517979 -0.533208
869 66.01 22.96 2.87 0.856703 0.459998 0.233373
56 68.88 22.96 0 0.6159 0.604608 0.505089
57 70.315 24.395 1.435 -0.592314 0.443619 -0.672582
871 68.88 22.96 2.87 -0.176707 0.968331 -0.176382
58 73.185 24.395 1.435 0.597914 0.51006 -0.618335
873 71.75 22.96 2.87 -0.704892 0.672205 -0.226425
59 24.395 27.265 1.435 0.195997 -0.398592 0.895941
60 25.83 25.83 0 0.547069 -0.581797 -0.601853
61 27.265 27.265 1.435 0.50213 -0.840798 -0.202298
876 25.83 25.83 2.87 -0.719406 -0.667812 -0.191002
62 28.7 25.83 0 -0.734059 -0.574946 -0.36138
63 30.135 27.265 1.435 0.563607 -0.67916 0.470201
878 28.7 25.83 2.87 0.704911 0.694266 0.145242
64 31.57 25.83 0 -0.493067 0.756061 -0.430415
65 33.005 27.265 1.435 -0.4959 0.238697 -0.834929
880 31.57 25.83 2.87 0.0769492 0.623722 0.77785
66 34.44 25.83 0 -0.752027 -0.246368 0.611358
67 35.875 27.265 1.435 -0.7823 -0.600679 0.164898
882 34.44 25.83 2.87 0.894009 -0.416505 0.165143
68 37.31 25.83 0 -0.784439 -0.245301 0.569634
69 38.745 27.265 1.435 -0.448787 0.247545 -0.858669
884 37.31 25.83 2.87 0.618747 0.619599 0.48296
70 40.18 25.83 0 -0.786662 0.00815883 -0.61733
71 41.615 27.265 1.435 -0.3713 0.876878 -0.305322
886 40.18 25.83 2.87 0.861698 -0.477299 -0.172227
72 43.05 25.83 0 0.519675 -0.797582 -0.306271
73 44.485 27.265 1.435 -0.549776 -0.632784 0.54528
888 43.05 25.83 2.87 0.0318212 -0.684513 0.728306
74 45.92 25.83 0 0.486529 0.523819 -0.699216
75 47.355 27.265 1.435 0.0688907 -0.983296 0.168474
890 45.92 25.83 2.87 -0.571906 -0.0385993 0.819411
76 48.79 25.83 0 0.355849 0.265083 0.89616
77 50.225 27.265 1.435 0.721559 -0.522775 -0.453937
892 48.79 25.83 2.87 -0.532153 -0.495673 0.686383
78 51.66 25.83 0 -0.633266 -0.410914 0.655838
79 53.095 27.265 1.435 0.606574 -0.373469 -0.701847
894 51.66 25.83 2.87 0.522841 -0.237266 0.818744
80 54.53 25.83 0 -0.699408 0.510692 0.500023
81 55.965 27.265 1.435 0.910246 -0.414067 -0.00114686
896 54.53 25.83 2.87 -0.748058 0.241224 0.618239
82 57.4 25.83 0 -0.561798 0.75346 0.341586
83 58.835 27.265 1.435 -0.540926 0.819625 -0.188715
898 57.4 25.83 2.87 -0.522794 -0.846302 0.10227
84 60.27 25.83 0 -0.31796 -0.330556 -0.888613
85 61.705 27.265 1.435 0.483932 -0.418701 0.768439
900 60.27 25.83 2.87 0.890671 -0.062896 -0.450276
86 63.14 25.83 0 -0.896052 0.0336307 0.442674
87 64.575 27.265 1.435 0.555677 0.776306 0.297611
902 63.14 25.83 2.87 0.726763 -0.378935 -0.572908
88 66.01 25.83 0 0.621516 -0.600585 -0.503006
89 67.445 27.265 1.435 0.328238 -0.0266627 0.944219
904 66.01 25.83 2.87 -0.555528 -0.499182 -0.664985
90 68.88 25.83 0 -0.265034 0.365823 -0.892149
91 70.315 27.265 1.435 0.230458 0.640219 -0.732809
906 68.88 25.83 2.87 0.144003 -0.186748 0.971796
92 71.75 25.83 0 0.541779 -0.408534 0.734558
93 73.185 27.265 1.435 -0.198758 -0.698176 -0.687783
908 71.75 25.83 2.87 0.341886 0.688212 -0.639905
94 74.62 25.83 0 0.6275 -0.635027 0.450537
95 76.055 27.265 1.435 0.214612 -0.961686 0.170593
910 74.62 25.83 2.87 0.300763 0.140153 -0.943344
96 21.525 30.135 1.435 0.700075 -0.66666 -0.255851
97 22.96 28.7 0 -0.386677 0.639072 0.664881
98 24.395 30.135 1.435 -0.901874 0.173177 -0.395769
913 22.96 28.7 2.87 -0.541591 0.499232 -0.676348
99 25.83 28.7 0 0.175519 0.727316 -0.663479
100 27.265 30.135 1.435 0.677591 -0.188555 -0.710857
915 25.83 28.7 2.87 0.808023 0.025352 -0.588605
101 28.7 28.7 0 -0.707376 0.0652306 0.703821
102 30.135 30.135 1.435 -0.393756 -0.609702 0.68791
917 28.7 28.7 2.87 0.910583 -0.340731 0.233966
103 31.57 28.7 0 0.568358 -0.549168 0.612685
104 33.005 30.135 1.435 0.5343 -0.838461 -0.10727
919 31.57 28.7 2.87 0.493023 -0.084124 0.86594
105 34.44 28.7 0 -0.179635 0.931915 0.315066
106 35.875 30.135 1.435 -0.678574 0.669559 -0.302041
921 34.44 28.7 2.87 -0.26646 -0.945879 -0.185237
107 37.31 28.7 0 -0.763024 0.429371 0.483151
108 38.745 30.135 1.435 -0.649585 0.709203 -0.27399
923 37.31 28.7 2.87 -0.0536323 -0.279193 -0.958736
109 40.18 28.7 0 0.000510441 -0.70449 0.709714
110 41.615 30.135 1.435 0.483121 0.166258 -0.859623
925 40.18 28.7 2.87 0.673772 0.442567 0.591747
111 43.05 28.7 0 0.820809 -0.510574 0.256099
112 44.485 30.135 1.435 -0.631018 0.764668 -0.130762
927 43.05 28.7 2.87 0.809501 0.547048 -0.213181
113 45.92 28.7 0 -0.992455 0.104642 -0.0639061
114 47.355 30.135 1.435 -0.49344 -0.56371 -0.66238
929 45.92 28.7 2.87 -0.227093 0.00995888 -0.973822
115 48.79 28.7 0 0.570059 -0.221267 -0.791248
116 50.225 30.135 1.435 0.984889 0.114177 0.130221
931 48.79 28.7 2.87 -0.319209 -0.693956 -0.645392
117 51.66 28.7 0 -0.402801 -0.378022 0.833577
118 53.095 30.135 1.435 -0.92779 0.00602356 -0.373053
933 51.66 28.7 2.87 0.985825 0.0322075 0.164657
119 54.53 28.7 0 0.562046 -0.293369 -0.773329
120 55.965 30.135 1.435 0.0345605 -0.629859 0.77594
935 54.53 28.7 2.87 -0.615151 0.646601 -0.451106
121 57.4 28.7 0 -0.117967 0.876268 0.46716
122 58.835 30.135 1.435 0.930057 0.1639 0.328832
937 57.4 28.7 2.87 0.475768 -0.836494 0.271885
123 60.27 28.7 0 -0.241098 -0.621924 -0.745038
124 61.705 30.135 1.435 -0.580576 -0.461549 0.670749
939 60.27 28.7 2.87 0.0811898 0.0356229 -0.996062
125 63.14 28.7 0 -0.813612 0.422531 -0.399379
126 64.575 30.135 1.435 -0.668368 -0.635118 -0.387181
941 63.14 28.7 2.87 0.5884 -0.807913 0.0326008
127 66.01 28.7 0 -0.700341 -0.694632 -0.164341
128 67.445 30.135 1.435 -0.830661 -0.0383244 0.555458
943 66.01 28.7 2.87 0.0595445 0.67834 -0.732332
129 68.88 28.7 0 0.673466 0.707704 -0.213536
130 70.315 30.135 1.435 0.55233 0.350002 -0.756591
945 68.88 28.7 2.87 -0.907564 -0.40465 0.112184
131 71.75 28.7 0 -0.424176 0.328357 0.843953
132 73.185 30.135 1.435 -0.454023 0.792612 0.406976
947 71.75 28.7 2.87 -0.916318 -0.261643 -0.303157
133 74.62 28.7 0 -0.591189 -0.611828 -0.525511
134 76.055 30.135 1.435 0.0888663 -0.294695 0.95145
949 74.62 28.7 2.87 0.653008 -0.444205 -0.613402
951 77.49 28.7 2.87 0.500304 0.506439 0.702293
135 21.525 33.005 1.435 0.829918 -0.392559 -0.396402
136 22.96 31.57 0 0.086141 -0.898191 0.431082
137 24.395 33.005 1.435 0.12618 0.31669 -0.940099
953 22.96 31.57 2.87 -0.997809 -0.000482563 0.0661555
138 25.83 31.57 0 -0.685124 -0.693937 -0.221488
139 27.265 33.005 1.435 -0.614122 0.098505 0.78304
955 25.83 31.57 2.87 -0.39296 0.549638 0.737211
140 28.7 31.57 0 0.240556 -0.84545 0.476809
141 30.135 33.005 1.435 -0.69344 0.637426 0.335901
957 28.7 31.57 2.87 0.3471 -0.209339 -0.914165
142 31.57 31.57 0 -0.065779 0.579587 -0.812251
143 33.005 33.005 1.435 -0.854917 -0.492089 -0.16421
959 31.57 31.57 2.87 0.706229 0.307497 0.63772
144 34.44 31.57 0 -0.484735 -0.74915 -0.451449
145 35.875 33.005 1.435 0.573452 -0.651809 -0.496284
961 34.44 31.57 2.87 0.105063 0.989494 0.0993179
146 37.31 31.57 0 0.104062 -0.719349 -0.68681
147 38.745 33.005 1.435 -0.92626 0.376154 -0.0234765
963 37.31 31.57 2.87 -0.10385 0.123205 -0.986932
148 40.18 31.57 0 -0.255517 0.83532 0.486777
149 41.615 33.005 1.435 0.348877 0.745048 -0.568497
965 40.18 31.57 2.87 0.796338 -0.455529 -0.397919
150 43.05 31.57 0 -0.625619 -0.669036 0.401238
151 44.485 33.005 1.435 -0.758037 -0.402011 0.513582
967 43.05 31.57 2.87 0.875381 0.473723 -0.0964105
152 45.92 31.57 0 -0.714669 0.477171 0.511425
153 47.355 33.005 1.435 0.271575 -0.19835 -0.941756
969 45.92 31.57 2.87 -0.670049 0.33513 0.662361
154 48.79 31.57 0 -0.552907 -0.773991 -0.308596
155 50.225 33.005 1.435 -0.576801 -0.814441 0.063145
971 48.79 31.57 2.87 -0.697931 -0.0558661 -0.713983
156 51.66 31.57 0 -0.468237 0.490232 0.735137
157 53.095 33.005 1.435 -0.0997289 0.814955 -0.570879
973 51.66 31.57 2.87 0.387174 -0.00977775 0.921955
158 54.53 31.57 0 0.36044 -0.698188 -0.61856
159 55.965 33.005 1.435 -0.294431 0.954918 -0.0379769
975 54.53 31.57 2.87 0.135988 -0.166714 0.976583
160 57.4 31.57 0 0.403597 -0.90371 -0.142888
161 58.835 33.005 1.435 0.630812 0.0283036 -0.77542
977 57.4 31.57 2.87 0.0461116 -0.736401 -0.674972
162 60.27 31.57 0 0.736543 -0.675454 -0.0355999
163 61.705 33.005 1.435 -0.542885 0.453432 -0.706877
979 60.27 31.57 2.87 -0.406898 0.888665 -0.211443
164 63.14 31.57 0 -0.129817 0.667174 0.733503
165 64.575 33.005 1.435 0.40229 -0.694775 -0.596196
981 63.14 31.57 2.87 -0.791408 0.172852 -0.586341
166 66.01 31.57 0 0.0676103 -0.788973 -0.610697
167 67.445 33.005 1.435 -0.105743 0.159304 0.98155
983 66.01 31.57 2.87 0.0398919 0.706526 -0.706562
168 68.88 31.57 0 -0.604968 0.577515 -0.54817
169 70.315 33.005 1.435 -0.569459 -0.492404 0.658221
985 68.88 31.57 2.87 -0.426613 -0.642924 0.636121
170 71.75 31.57 0 0.560162 0.335363 0.757463
171 73.185 33.005 1.435 -0.554355 -0.806124 -0.207014
987 71.75 31.57 2.87 0.945272 0.199776 0.257975
172 74.62 31.57 0 0.777178 0.436799 0.45299
173 76.055 33.005 1.435 0.760471 -0.137752 0.634593
989 74.62 31.57 2.87 -0.803298 0.584054 0.116587
174 77.49 31.57 0 -0.339498 0.59377 0.729506
175 78.925 33.005 1.435 0.477014 0.597587 0.644475
991 77.49 31.57 2.87 -0.0388212 -0.907063 0.419201
176 20.09 34.44 0 -0.456935 0.872304 -0.174057
177 21.525 35.875 1.435 0.0347421 -0.728539 0.684123
993 20.09 34.44 2.87 0.895362 0.444392 0.029045
178 22.96 34.44 0 -0.342508 0.939089 -0.0282795
179 24.395 35.875 1.435 0.714086 -0.69959 -0.0255828
995 22.96 34.44 2.87 -0.656181 0.225249 -0.720201
180 25.83 34.44 0 -0.187913 -0.978871 0.0806241
181 27.265 35.875 1.435 0.595268 -0.712027 0.37239
997 25.83 34.44 2.87 -0.622187 0.707572 -0.335
182 28.7 34.44 0 -0.593551 -0.504857 0.626751
183 30.135 35.875 1.435 -0.587132 0.0558505 -0.807562
999 28.7 34.44 2.87 0.639269 0.551249 0.536152
184 31.57 34.44 0 0.931501 -0.25446 -0.259915
185 33.005 35.875 1.435 -0.292035 -0.760645 -0.579771
1001 31.57 34.44 2.87 0.543078 -0.317231 0.777452
186 34.44 34.44 0 -0.796095 0.378738 0.472006
187 35.875 35.875 1.435 -0.339251 -0.314212 0.886668
1003 34.44 34.44 2.87 0.376431 0.677371 0.632035
188 37.31 34.44 0 -0.893143 0.41468 -0.174172
189 38.745 35.875 1.435 -0.903604 0.245594 -0.350974
1005 37.31 34.44 2.87 0.251638 0.964309 -0.0823814
190 40.18 34.44 0 -0.243483 -0.335941 0.909868
191 41.615 35.875 1.435 0.647743 -0.308427 -0.696636
1007 40.18 34.44 2.87 -0.707055 -0.663946 0.243412
192 43.05 34.44 0 0.70866 -0.689869 -0.147927
193 44.485 35.875 1.435 0.256177 0.14928 -0.955033
1009 43.05 34.44 2.87 -0.86097 -0.470802 -0.19255
194 45.92 34.44 0 -0.0115931 0.636015 -0.771589
195 47.355 35.875 1.435 -0.366779 -0.7711 0.520459
1011 45.92 34.44 2.87 0.172171 -0.562053 -0.808983
196 48.79 34.44 0 -0.646146 0.635413 0.422783
197 50.225 35.875 1.435 -0.725929 -0.42435 0.541252
1013 48.79 34.44 2.87 0.704621 0.298943 0.643539
198 51.66 34.44 0 -0.76734 0.237046 0.595818
199 53.095 35.875 1.435 -0.605972 -0.785462 -0.125888
1015 51.66 34.44 2.87 -0.543799 0.633149 -0.550822
200 54.53 34.44 0 0.0134187 0.815549 -0.578532
201 55.965 35.875 1.435 -0.702264 0.679262 0.213138
1017 54.53 34.44 2.87 0.67165 0.653808 0.348455
202 57.4 34.44 0 -0.810808 -0.583116 -0.0506472
203 58.835 35.875 1.435 0.877573 -0.394876 0.271916
1019 57.4 34.44 2.87 0.727856 0.58903 0.351095
204 60.27 34.44 0 0.950466 -0.226464 -0.212905
205 61.705 35.875 1.435 -0.254907 0.736235 0.626882
1021 60.27 34.44 2.87 0.536269 -0.844038 0.00396172
206 63.14 34.44 0 0.628421 -0.228504 -0.743554
207 64.575 35.875 1.435 0.703066 0.697241 -0.139828
1023 63.14 34.44 2.87 0.25482 -0.667453 -0.699695
208 66.01 34.44 0 -0.141418 0.662236 0.735829
209 67.445 35.875 1.435 0.00459395 0.391817 -0.920032
1025 66.01 34.44 2.87 0.481072 -0.438068 -0.759386
210 68.88 34.44 0 -0.115665 0.823176 0.555881
211 70.315 35.875 1.435 0.734248 0.305481 -0.606268
1027 68.88 34.44 2.87 -0.269238 0.4571 -0.847685
212 71.75 34.44 0 -0.488847 -0.786223 -0.377998
213 73.185 35.875 1.435 -0.644086 0.455121 -0.614833
1029 71.75 34.44 2.87 -0.513567 -0.524666 0.678952
214 74.62 34.44 0 -0.289459 -0.955232 0.0611961
215 76.055 35.875 1.435 0.821545 0.123161 -0.556682
1031 74.62 34.44 2.87 -0.468393 0.332099 -0.81873
216 77.49 34.44 0 0.891898 -0.144124 -0.428656
217 78.925 35.875 1.435 -0.111104 -0.568826 -0.814919
1033 77.49 34.44 2.87 -0.544348 -0.199063 -0.814898
218 20.09 37.31 0 -0.509962 0.0583654 -0.858215
219 21.525 38.745 1.435 -0.885815 0.457382 0.0783195
1035 20.09 37.31 2.87 -0.683042 0.575208 0.4501
220 22.96 37.31 0 0.372155 -0.329602 -0.867677
221 24.395 38.745 1.435 0.552728 -0.672467 0.492219
1037 22.96 37.31 2.87 -0.893719 0.11661 0.433206
222 25.83 37.31 0 0.569827 -0.428874 0.700974
223 27.265 38.745 1.435 -0.604396 0.27313 -0.748402
1039 25.83 37.31 2.87 -0.693331 0.709332 -0.127046
224 28.7 37.31 0 -0.110753 0.571182 0.813317
225 30.135 38.745 1.435 0.494639 -0.613175 -0.615913
1041 28.7 37.31 2.87 0.288408 0.954721 0.0730017
226 31.57 37.31 0 -0.685664 -0.707587 -0.17084
227 33.005 38.745 1.435 0.596849 0.616027 0.514084
1043 31.57 37.31 2.87 -0.780819 0.356061 0.513364
228 34.44 37.31 0 -0.698302 -0.262368 -0.665986
229 35.875 38.745 1.435 -0.412058 0.698245 -0.585374
1045 34.44 37.31 2.87 -0.567218 0.816967 -0.104058
230 37.31 37.31 0 0.199828 -0.915245 0.34985
231 38.745 38.745 1.435 0.810086 -0.490137 0.321755
1047 37.31 37.31 2.87 0.872272 0.427586 0.237299
232 40.18 37.31 0 -0.690633 -0.20699 0.692951
233 41.615 38.745 1.435 -0.886134 -0.102982 0.451842
1049 40.18 37.31 2.87 -0.549518 0.562018 0.618195
234 43.05 37.31 0 -0.115077 0.293902 0.948883
235 44.485 38.745 1.435 -0.31609 -0.311925 -0.895985
1051 43.05 37.31 2.87 -0.944861 -0.09644 0.312948
236 45.92 37.31 0 -0.680247 0.692152 -0.241224
237 47.355 38.745 1.435 0.731946 0.673887 0.100657
1053 45.92 37.31 2.87 -0.832171 0.3982 0.385912
238 48.79 37.31 0 0.473479 0.564301 -0.676301
239 50.225 38.745 1.435 0.539006 0.4251 0.72716
1055 48.79 37.31 2.87 -0.53984 0.740444 0.400395
240 51.66 37.31 0 -0.656209 0.529145 0.537955
241 53.095 38.745 1.435 -0.0948687 -0.978898 -0.180994
1057 51.66 37.31 2.87 0.681595 0.720808 0.125955
242 54.53 37.31 0 -0.782269 0.483124 -0.393251
243 55.965 38.745 1.435 -0.988162 0.130228 -0.0811
1059 54.53 37.31 2.87 -0.607254 0.493933 -0.622312
244 57.4 37.31 0 -0.621394 0.443661 -0.645782
245 58.835 38.745 1.435 0.312251 -0.947918 -0.0628636
1061 57.4 37.31 2.87 0.478469 -0.496445 -0.7243
246 60.27 37.31 0 0.112662 0.396787 0.91097
247 61.705 38.745 1.435 -0.0764093 0.732313 0.676668
1063 60.27 37.31 2.87 -0.345235 -0.479142 0.806992
248 63.14 37.31 0 -0.874409 -0.0420826 -0.483361
249 64.575 38.745 1.435 0.576096 -0.344863 0.741069
1065 63.14 37.31 2.87 -0.499744 -0.761963 -0.411909
250 66.01 37.31 0 -0.592536 0.79581 0.124849
251 67.445 38.745 1.435 0.0304952 0.824254 0.565399
1067 66.01 37.31 2.87 -0.509863 0.753808 -0.414504
252 68.88 37.31 0 -0.584048 0.789159 0.190042
253 70.315 38.745 1.435 -0.177521 0.644995 -0.743282
1069 68.88 37.31 2.87 0.538564 -0.566948 -0.623313
254 71.75 37.31 0 -0.219393 -0.840979 -0.494592
255 73.185 38.745 1.435 0.244483 0.793343 -0.557526
1071 71.75 37.31 2.87 0.251034 0.636796 0.729021
256 74.62 37.31 0 0.374386 0.633627 0.677016
257 76.055 38.745 1.435 -0.0610779 0.410807 -0.909674
1073 74.62 37.31 2.87 -0.68065 0.70265 0.207362
258 77.49 37.31 0 0.337114 0.724318 0.601429
259 78.925 38.745 1.435 -0.705798 0.484419 0.516901
1075 77.49 37.31 2.87 -0.540517 0.656633 0.525999
260 20.09 40.18 0 -0.885082 0.404847 0.229629
261 21.525 41.615 1.435 -0.56354 -0.231745 -0.792917
1077 20.09 40.18 2.87 -0.827212 -0.398945 0.395681
262 22.96 40.18 0 -0.446245 -0.0521183 0.893392
263 24.395 41.615 1.435 0.457523 0.634117 -0.623352
1079 22.96 40.18 2.87 -0.672279 0.627081 0.39346
264 25.83 40.18 0 0.621202 0.446885 -0.643741
265 27.265 41.615 1.435 -0.972553 0.231896 0.0190833
1081 25.83 40.18 2.87 -0.688678 0.69334 -0.212137
266 28.7 40.18 0 0.945178 0.3254 -0.027457
267 30.135 41.615 1.435 0.0938932 0.992775 0.0747118
1083 28.7 40.18 2.87 -0.314221 -0.619915 -0.719007
268 31.57 40.18 0 0.338604 -0.860864 0.379815
269 33.005 41.615 1.435 0.819995 0.543126 -0.180617
1085 31.57 40.18 2.87 0.396641 0.897036 -0.194942
270 34.44 40.18 0 -0.598944 0.542413 -0.589114
271 35.875 41.615 1.435 -0.717509 -0.516369 -0.467486
1087 34.44 40.18 2.87 -0.947625 0.236618 0.214519
272 37.31 40.18 0 -0.786611 -0.437563 0.435639
273 38.745 41.615 1.435 -0.0413598 -0.0642033 -0.997079
1089 37.31 40.18 2.87 0.113324 -0.407102 -0.906325
274 40.18 40.18 0 -0.165109 0.0395589 0.985482
275 41.615 41.615 1.435 -0.084978 -0.684309 -0.724223
1091 40.18 40.18 2.87 -0.486171 -0.873676 0.0181011
276 43.05 40.18 0 -0.750229 -0.456159 -0.478619
277 44.485 41.615 1.435 -0.00394191 -0.87975 0.47542
1093 43.05 40.18 2.87 -0.614345 -0.654448 -0.44077
278 45.92 40.18 0 -0.649101 -0.75805 0.0634735
279 47.355 41.615 1.435 0.610371 0.482639 0.628098
1095 45.92 40.18 2.87 0.892324 -0.411927 0.184595
280 48.79 40.18 0 -0.251672 -0.666809 0.701447
281 50.225 41.615 1.435 0.45159 -0.756844 0.472497
1097 48.79 40.18 2.87 -0.704289 0.331925 0.627537
282 51.66 40.18 0 0.60401 0.459526 0.651158
283 53.095 41.615 1.435 0.34048 0.503527 -0.794062
1099 51.66 40.18 2.87 -0.871527 0.454658 -0.18365
284 54.53 40.18 0 -0.0152017 -0.981165 -0.192573
285 55.965 41.615 1.435 -0.886737 -0.321045 -0.332606
1101 54.53 40.18 2.87 -0.238209 -0.913787 0.329012
286 57.4 40.18 0 -0.701296 0.70185 -0.124862
287 58.835 41.615 1.435 -0.33652 -0.732368 0.591939
1103 57.4 40.18 2.87 0.733879 0.660974 -0.156637
288 60.27 40.18 0 -0.573705 -0.534312 0.620785
289 61.705 41.615 1.435 -0.54976 0.728213 0.40923
1105 60.27 40.18 2.87 0.384881 0.841526 0.379079
290 63.14 40.18 0 0.0864137 0.899925 0.427396
291 64.575 41.615 1.435 0.473016 -0.783738 0.402505
1107 63.14 40.18 2.87 -0.252842 -0.788946 0.560031
292 66.01 40.18 0 0.609585 -0.777728 0.153447
293 67.445 41.615 1.435 -0.632314 0.577706 0.516173
1109 66.01 40.18 2.87 0.394766 0.913891 -0.0946668
294 68.88 40.18 0 -0.484505 -0.462015 0.74283
295 70.315 41.615 1.435 -0.774713 0.355133 -0.523164
1111 68.88 40.18 2.87 0.151721 -0.769604 -0.620234
296 71.75 40.18 0 0.744496 0.626587 -0.230467
297 73.185 41.615 1.435 0.129473 -0.573056 -0.809224
1113 71.75 40.18 2.87 0.273769 -0.960807 -0.0436011
298 74.62 40.18 0 0.671929 -0.6781 -0.29781
299 76.055 41.615 1.435 -0.162259 -0.668765 0.725551
1115 74.62 40.18 2.87 -0.405903 0.600763 -0.688714
300 77.49 40.18 0 -0.851397 0.078506 -0.518613
301 78.925 41.615 1.435 0.258864 -0.571744 0.778523
1117 77.49 40.18 2.87 0.869188 0.424184 0.254125
302 20.09 43.05 0 -0.409027 0.78939 0.457777
303 21.525 44.485 1.435 0.455447 0.368368 -0.810477
1119 20.09 43.05 2.87 0.954042 -0.289169 -0.0786429
304 22.96 43.05 0 0.650735 -0.540629 -0.533164
305 24.395 44.485 1.435 -0.439676 0.551112 -0.709197
1121 22.96 43.05 2.87 -0.354717 -0.300904 0.88523
306 25.83 43.05 0 0.67332 0.728985 -0.123372
307 27.265 44.485 1.435 0.848903 -0.479316 0.222757
1123 25.83 43.05 2.87 -0.391856 -0.603682 0.694274
308 28.7 43.05 0 0.321208 -0.911649 0.256363
309 30.135 44.485 1.435 0.349355 0.918812 -0.183672
1125 28.7 43.05 2.87 0.660162 0.178962 -0.729492
310 31.57 43.05 0 -0.596431 0.777739 -0.198474
311 33.005 44.485 1.435 0.821045 0.540789 0.182847
1127 31.57 43.05 2.87 -0.125673 -0.14614 0.981249
312 34.44 43.05 0 0.694333 -0.682951 0.226891
313 35.875 44.485 1.435 0.682781 0.696798 -0.219734
1129 34.44 43.05 2.87 -0.9244 -0.00764281 -0.381348
314 37.31 43.05 0 0.519612 -0.835646 0.178045
315 38.745 44.485 1.435 0.81398 -0.411819 0.409686
1131 37.31 43.05 2.87 0.704698 -0.70918 0.0215651
316 40.18 43.05 0 -0.481102 -0.122357 0.868084
317 41.615 44.485 1.435 0.841728 -0.536976 0.0561316
1133 40.18 43.05 2.87 0.388072 0.689976 0.61101
318 43.05 43.05 0 0.171465 -0.664058 0.727754
319 44.485 44.485 1.435 -0.537782 -0.648175 -0.539129
1135 43.05 43.05 2.87 -0.578153 0.491983 -0.650917
320 45.92 43.05 0 -0.421163 -0.377096 -0.824876
321 47.355 44.485 1.435 0.204343 -0.901154 -0.382316
1137 45.92 43.05 2.87 0.704055 0.621514 -0.34355
322 48.79 43.05 0 0.801677 0.488937 0.343883
323 50.225 44.485 1.435 0.904992 -0.424436 0.0290474
1139 48.79 43.05 2.87 -0.186861 -0.864981 0.465715
324 51.66 43.05 0 -0.190029 0.975692 0.109152
325 53.095 44.485 1.435 0.985583 -0.1482 -0.08163
1141 51.66 43.05 2.87 -0.212829 0.659687 0.720775
326 54.53 43.05 0 0.115795 -0.554869 -0.823839
327 55.965 44.485 1.435 -0.647833 -0.631129 0.426602
1143 54.53 43.05 2.87 -0.859167 0.220161 0.461909
328 57.4 43.05 0 0.250533 0.26953 -0.929831
329 58.835 44.485 1.435 0.757668 0.187918 0.625001
1145 57.4 43.05 2.87 -0.2664 -0.483991 -0.833537
330 60.27 43.05 0 0.930572 -0.354085 -0.0930627
331 61.705 44.485 1.435 -0.615632 -0.183041 0.766481
1147 60.27 43.05 2.87 0.601116 -0.0632196 0.796658
332 63.14 43.05 0 0.608151 -0.556173 -0.566413
333 64.575 44.485 1.435 -0.0587887 -0.0535007 -0.996836
1149 63.14 43.05 2.87 -0.245164 -0.574792 0.780711
334 66.01 43.05 0 0.38041 0.594206 -0.708666
335 67.445 44.485 1.435 -0.601783 -0.551059 0.578093
1151 66.01 43.05 2.87 0.573702 -0.11174 -0.811406
336 68.88 43.05 0 -0.0339456 -0.609994 0.791679
337 70.315 44.485 1.435 -0.758514 0.620911 0.197802
1153 68.88 43.05 2.87 0.333215 -0.335219 0.881247
338 71.75 43.05 0 -0.489669 -0.767969 0.412853
339 73.185 44.485 1.435 -0.176501 0.914445 0.364194
1155 71.75 43.05 2.87 0.57104 -0.533826 0.623652
340 74.62 43.05 0 -0.522839 0.302509 0.796949
341 76.055 44.485 1.435 -0.679677 -0.661296 0.317375
1157 74.62 43.05 2.87 0.802747 -0.0254097 -0.595778
342 77.49 43.05 0 -0.170503 -0.877944 -0.447373
343 78.925 44.485 1.435 -0.237328 -0.200539 0.950505
1159 77.49 43.05 2.87 0.736415 -0.650686 0.185205
344 20.09 45.92 0 -0.246845 -0.746649 -0.617724
345 21.525 47.355 1.435 0.67149 -0.356256 0.649755
1161 20.09 45.92 2.87 -0.357719 -0.795416 0.489234
346 22.96 45.92 0 0.638528 -0.583922 0.501316
347 24.395 47.355 1.435 0.793571 0.389574 0.467416
1163 22.96 45.92 2.87 -0.349148 0.638706 -0.685675
348 25.83 45.92 0 -0.699316 0.585274 -0.41038
349 27.265 47.355 1.435 -0.537189 0.0187869 0.843253
1165 25.83 45.92 2.87 -0.148726 0.332764 -0.931208
350 28.7 45.92 0 -0.0741509 -0.687697 0.722201
351 30.135 47.355 1.435 -0.151961 0.85531 -0.495332
1167 28.7 45.92 2.87 -0.589688 0.629551 0.505898
352 31.57 45.92 0 -0.485972 0.669199 0.562142
353 33.005 47.355 1.435 -0.0380799 0.859672 -0.509425
1169 31.57 45.92 2.87 0.861496 -0.458629 0.217909
354 34.44 45.92 0 0.380406 -0.252355 0.889724
355 35.875 47.355 1.435 -0.402103 -0.898408 0.176569
1171 34.44 45.92 2.87 -0.131755 0.717889 -0.683576
356 37.31 45.92 0 0.0859585 -0.766472 -0.636499
357 38.745 47.355 1.435 0.533637 0.718 -0.446886
1173 37.31 45.92 2.87 -0.102402 0.422776 0.90043
358 40.18 45.92 0 0.235711 -0.84675 -0.476922
359 41.615 47.355 1.435 0.456734 0.3878 -0.800628
1175 40.18 45.92 2.87 0.182293 -0.706383 -0.683953
360 43.05 45.92 0 0.20022 -0.776041 -0.598058
361 44.485 47.355 1.435 0.651267 -0.624381 0.431277
1177 43.05 45.92 2.87 -0.988593 0.114549 0.0977895
362 45.92 45.92 0 -0.278287 -0.957573 0.0749035
363 47.355 47.355 1.435 -0.849735 0.504415 0.153346
1179 45.92 45.92 2.87 -0.806972 -0.546015 -0.225089
364 48.79 45.92 0 0.0344637 -0.494146 -0.868695
365 50.225 47.355 1.435 -0.0225164 0.857594 0.513834
1181 48.79 45.92 2.87 0.810512 -0.227525 -0.539725
366 51.66 45.92 0 0.0283946 -0.974633 -0.222003
367 53.095 47.355 1.435 0.838547 -0.0115714 0.544706
1183 51.66 45.92 2.87 -0.682163 -0.222411 -0.696554
368 54.53 45.92 0 -0.79764 -0.102662 -0.594332
369 55.965 47.355 1.435 -0.0575687 0.81222 0.580504
1185 54.53 45.92 2.87 -0.101829 -0.698949 -0.707885
370 57.4 45.92 0 0.240679 -0.509992 0.825822
371 58.835 47.355 1.435 -0.466236 0.683907 0.561155
1187 57.4 45.92 2.87 -0.890149 0.173129 0.421499
372 60.27 45.92 0 0.311575 -0.466313 0.827933
373 61.705 47.355 1.435 0.628757 -0.039539 -0.776596
1189 60.27 45.92 2.87 -0.8624 -0.385605 0.327985
374 63.14 45.92 0 0.657353 -0.197778 0.727166
375 64.575 47.355 1.435 0.419737 -0.512228 0.749295
1191 63.14 45.92 2.87 -0.17238 0.720993 0.671159
376 66.01 45.92 0 0.198031 0.797281 0.570199
377 67.445 47.355 1.435 -0.290282 -0.716182 0.63468
1193 66.01 45.92 2.87 0.263958 0.882406 -0.389469
378 68.88 45.92 0 -0.828276 -0.550448 0.104718
379 70.315 47.355 1.435 0.583419 -0.574664 -0.573919
1195 68.88 45.92 2.87 -0.543736 0.35849 0.758839
380 71.75 45.92 0 -0.811262 0.45321 -0.369398
381 73.185 47.355 1.435 0.438536 0.770626 0.462408
1197 71.75 45.92 2.87 0.383895 -0.469508 -0.795102
382 74.62 45.92 0 0.618686 0.532846 -0.577323
383 76.055 47.355 1.435 0.174288 0.908976 0.378664
1199 74.62 45.92 2.87 -0.807937 0.581651 -0.0944456
384 77.49 45.92 0 0.00304842 0.731094 0.682269
385 78.925 47.355 1.435 -0.669991 0.684829 0.286569
1201 77.49 45.92 2.87 0.81508 0.47777 0.327689
386 20.09 48.79 0 0.95934 -0.102007 -0.263175
387 21.525 50.225 1.435 0.563595 0.647828 0.512523
1203 20.09 48.79 2.87 -0.163573 -0.194334 0.967201
388 22.96 48.79 0 0.204057 0.960105 -0.191205
389 24.395 50.225 1.435 -0.987605 -0.0489642 0.149125
1205 22.96 48.79 2.87 -0.878578 -0.187646 0.439192
390 25.83 48.79 0 0.0884399 -0.672698 0.734613
391 27.265 50.225 1.435 -0.413694 0.347446 -0.84151
1207 25.83 48.79 2.87 -0.753253 0.474717 -0.455252
392 28.7 48.79 0 0.508985 0.852147 0.121576
393 30.135 50.225 1.435 -0.679957 -0.582538 -0.445318
1209 28.7 48.79 2.87 0.288565 0.912379 -0.290334
394 31.57 48.79 0 -0.780554 -0.390389 -0.488192
395 33.005 50.225 1.435 0.138936 -0.972169 0.188636
1211 31.57 48.79 2.87 0.712154 -0.258482 -0.652704
396 34.44 48.79 0 -0.976894 0.0516898 -0.207378
397 35.875 50.225 1.435 0.340494 -0.568552 -0.748874
1213 34.44 48.79 2.87 0.774021 0.628729 -0.0747775
398 37.31 48.79 0 0.601685 0.717482 0.350991
399 38.745 50.225 1.435 -0.48012 0.253277 -0.839843
1215 37.31 48.79 2.87 0.401386 -0.915052 -0.0396064
400 40.18 48.79 0 -0.201906 -0.422951 0.883372
401 41.615 50.225 1.435 -0.636097 0.296508 0.712364
1217 40.18 48.79 2.87 0.0608976 0.809281 0.584256
402 43.05 48.79 0 0.0877673 -0.798371 0.595736
403 44.485 50.225 1.435 0.537412 0.830027 0.149141
1219 43.05 48.79 2.87 0.504772 0.762842 -0.404076