Skyrmion configuration

1539 atoms
1 atom types

0.7400000000000002 98.275 xlo xhi
0.7400000000000002 98.275 ylo yhi
-5.0 9.305 zlo zhi

Masses

1 55.845

Atoms # spin

1 1 7.175000 38.745000 1.435000 -0.293752 -0.090333 0.951604
2 1 7.175000 41.615000 4.305000 -0.273673 -0.081129 0.958395
3 1 7.175000 44.485000 1.435000 -0.286843 -0.007298 0.957950
4 1 5.740000 43.050000 2.870000 -0.306025 -0.076308 0.948960
5 1 5.740000 45.920000 0.000000 -0.347069 -0.136845 0.927802
6 1 7.175000 47.355000 4.305000 -0.376582 -0.070864 0.923669
7 1 7.175000 50.225000 1.435000 -0.373702 -0.063218 0.925392
8 1 5.740000 48.790000 2.870000 -0.371029 -0.006212 0.928600
9 1 5.740000 51.660000 0.000000 -0.380044 0.018987 0.924773
10 1 7.175000 53.095000 4.305000 -0.346329 -0.004248 0.938103
11 1 7.175000 55.965000 1.435000 -0.373391 0.138784 0.917234
12 1 5.740000 54.530000 2.870000 -0.398312 0.077782 0.913946
13 1 5.740000 57.400000 0.000000 -0.334416 -0.047188 0.941243
14 1 7.175000 58.835000 4.305000 -0.326020 0.105904 0.939412
15 1 7.175000 61.705000 1.435000 -0.352842 0.078578 0.932378
16 1 10.045000 30.135000 1.435000 -0.312408 -0.160152 0.936351
17 1 10.045000 33.005000 4.305000 -0.297951 -0.219814 0.928928
18 1 10.045000 35.875000 1.435000 -0.352764 -0.150717 0.923494
19 1 8.610000 34.440000 2.870000 -0.281240 -0.076814 0.956558
20 1 8.610000 37.310000 0.000000 -0.336240 -0.082789 0.938130
21 1 10.045000 38.745000 4.305000 -0.410173 -0.118183 0.904318
22 1 10.045000 41.615000 1.435000 -0.413543 -0.037710 0.909703
23 1 8.610000 40.180000 2.870000 -0.354130 -0.033752 0.934587
24 1 8.610000 43.050000 0.000000 -0.372248 -0.040807 0.927236
25 1 10.045000 44.485000 4.305000 -0.458466 0.025771 0.888338
26 1 10.045000 47.355000 1.435000 -0.381135 -0.023548 0.924220
27 1 8.610000 45.920000 2.870000 -0.377410 -0.137350 0.915804
28 1 8.610000 48.790000 0.000000 -0.378880 0.064474 0.923197
29 1 10.045000 50.225000 4.305000 -0.428562 -0.021497 0.903257
30 1 10.045000 53.095000 1.435000 -0.386980 0.005171 0.922073
31 1 8.610000 51.660000 2.870000 -0.393205 0.066016 0.917078
32 1 8.610000 54.530000 0.000000 -0.421685 0.023361 0.906441
33 1 10.045000 55.965000 4.305000 -0.387421 0.073175 0.918994
34 1 10.045000 58.835000 1.435000 -0.404766 0.014781 0.914301
35 1 8.610000 57.400000 2.870000 -0.386847 0.025863 0.921781
36 1 8.610000 60.270000 0.000000 -0.328478 0.179469 0.927304
37 1 10.045000 61.705000 4.305000 -0.390035 0.114318 0.913676
38 1 10.045000 64.575000 1.435000 -0.309155 0.115040 0.944028
39 1 8.610000 63.140000 2.870000 -0.342661 0.120768 0.931664
40 1 8.610000 66.010000 0.000000 -0.348976 0.167488 0.922043
41 1 10.045000 67.445000 4.305000 -0.265893 0.089232 0.959864
42 1 10.045000 70.315000 1.435000 -0.320995 0.157632 0.933871
43 1 12.915000 27.265000 1.435000 -0.338633 -0.205603 0.918180
44 1 11.480000 28.700000 0.000000 -0.315097 -0.236207 0.919195
45 1 12.915000 30.135000 4.305000 -0.393418 -0.157165 0.905826
46 1 12.915000 33.005000 1.435000 -0.293389 -0.211672 0.932265
47 1 11.480000 31.570000 2.870000 -0.283993 -0.216107 0.934155
48 1 11.480000 34.440000 0.000000 -0.289578 -0.223510 0.930692
49 1 12.915000 35.875000 4.305000 -0.405179 -0.117750 0.906623
50 1 12.915000 38.745000 1.435000 -0.465958 -0.097034 0.879470
51 1 11.480000 37.310000 2.870000 -0.383702 -0.112689 0.916556
52 1 11.480000 40.180000 0.000000 -0.408523 -0.091983 0.908101
53 1 12.915000 41.615000 4.305000 -0.384320 -0.084025 0.919368
54 1 12.915000 44.485000 1.435000 -0.415127 -0.114026 0.902589
55 1 11.480000 43.050000 2.870000 -0.355558 -0.114357 0.927632
56 1 11.480000 45.920000 0.000000 -0.384885 -0.004632 0.922953
57 1 12.915000 47.355000 4.305000 -0.496691 -0.073412 0.864817
58 1 12.915000 50.225000 1.435000 -0.495859 -0.000957 0.868403
59 1 11.480000 48.790000 2.870000 -0.429772 0.027637 0.902514
60 1 11.480000 51.660000 0.000000 -0.335613 0.005256 0.941985
61 1 12.915000 53.095000 4.305000 -0.465797 -0.004066 0.884882
62 1 12.915000 55.965000 1.435000 -0.423328 0.060945 0.903924
63 1 11.480000 54.530000 2.870000 -0.430834 0.049764 0.901058
64 1 11.480000 57.400000 0.000000 -0.463235 0.054536 0.884556
65 1 12.915000 58.835000 4.305000 -0.427861 0.042110 0.902863
66 1 12.915000 61.705000 1.435000 -0.397324 0.087077 0.913538
67 1 11.480000 60.270000 2.870000 -0.393934 0.049255 0.917818
68 1 11.480000 63.140000 0.000000 -0.334056 0.174820 0.926199
69 1 12.915000 64.575000 4.305000 -0.435647 0.100484 0.894491
70 1 12.915000 67.445000 1.435000 -0.281183 0.164445 0.945460
71 1 11.480000 66.010000 2.870000 -0.308968 0.194131 0.931049
72 1 11.480000 68.880000 0.000000 -0.283646 0.139220 0.948769
73 1 12.915000 70.315000 4.305000 -0.367417 0.167892 0.914777
74 1 12.915000 73.185000 1.435000 -0.306693 0.317349 0.897346
75 1 11.480000 71.750000 2.870000 -0.270866 0.088966 0.958497
76 1 15.785000 21.525000 4.305000 -0.215251 -0.224145 0.950487
77 1 15.785000 24.395000 1.435000 -0.335841 -0.188731 0.922817
78 1 14.350000 22.960000 2.870000 -0.260265 -0.203547 0.943838
79 1 14.350000 25.830000 0.000000 -0.215971 -0.193508 0.957032
80 1 15.785000 27.265000 4.305000 -0.303852 -0.239534 0.922116
81 1 15.785000 30.135000 1.435000 -0.388591 -0.208990 0.897397
82 1 14.350000 28.700000 2.870000 -0.290563 -0.260802 0.920628
83 1 14.350000 31.570000 0.000000 -0.354084 -0.201664 0.913212
84 1 15.785000 33.005000 4.305000 -0.364139 -0.250654 0.896981
85 1 15.785000 35.875000 1.435000 -0.377099 -0.146793 0.914466
86 1 14.350000 34.440000 2.870000 -0.435661 -0.113890 0.892877
87 1 14.350000 37.310000 0.000000 -0.431788 -0.121031 0.893818
88 1 15.785000 38.745000 4.305000 -0.475677 -0.318128 0.820077
89 1 15.785000 41.615000 1.435000 -0.471410 -0.170144 0.865346
90 1 14.350000 40.180000 2.870000 -0.507200 -0.141921 0.850063
91 1 14.350000 43.050000 0.000000 -0.396366 -0.160671 0.903924
92 1 15.785000 44.485000 4.305000 -0.507525 -0.129782 0.851807
93 1 15.785000 47.355000 1.435000 -0.524103 -0.071315 0.848664
94 1 14.350000 45.920000 2.870000 -0.496126 -0.049187 0.866856
95 1 14.350000 48.790000 0.000000 -0.399359 -0.074362 0.913774
96 1 15.785000 50.225000 4.305000 -0.588637 -0.003755 0.808389
97 1 15.785000 53.095000 1.435000 -0.527318 0.017310 0.849492
98 1 14.350000 51.660000 2.870000 -0.502868 -0.005774 0.864344
99 1 14.350000 54.530000 0.000000 -0.462307 0.027291 0.886300
100 1 15.785000 55.965000 4.305000 -0.490729 0.127874 0.861878
101 1 15.785000 58.835000 1.435000 -0.511158 0.095114 0.854207
102 1 14.350000 57.400000 2.870000 -0.450512 0.098853 0.887281
103 1 14.350000 60.270000 0.000000 -0.391943 0.101669 0.914354
104 1 15.785000 61.705000 4.305000 -0.453074 0.141352 0.880195
105 1 15.785000 64.575000 1.435000 -0.372577 0.214203 0.902941
106 1 14.350000 63.140000 2.870000 -0.427435 0.192318 0.883353
107 1 14.350000 66.010000 0.000000 -0.377746 0.170415 0.910092
108 1 15.785000 67.445000 4.305000 -0.339794 0.149360 0.928564
109 1 15.785000 70.315000 1.435000 -0.385084 0.143249 0.911696
110 1 14.350000 68.880000 2.870000 -0.312278 0.216428 0.925009
111 1 14.350000 71.750000 0.000000 -0.325995 0.153464 0.932832
112 1 15.785000 73.185000 4.305000 -0.348862 0.261796 0.899866
113 1 15.785000 76.055000 1.435000 -0.316897 0.195128 0.928171
114 1 14.350000 74.620000 2.870000 -0.314137 0.157120 0.936286
115 1 15.785000 78.925000 4.305000 -0.245883 0.192403 0.950012
116 1 18.655000 18.655000 4.305000 -0.237170 -0.325396 0.915351
117 1 18.655000 21.525000 1.435000 -0.300914 -0.251986 0.919757
118 1 17.220000 20.090000 2.870000 -0.179521 -0.189045 0.965419
119 1 17.220000 22.960000 0.000000 -0.280295 -0.279957 0.918182
120 1 18.655000 24.395000 4.305000 -0.339413 -0.248258 0.907285
121 1 18.655000 27.265000 1.435000 -0.338985 -0.186220 0.922177
122 1 17.220000 25.830000 2.870000 -0.310842 -0.208837 0.927235
123 1 17.220000 28.700000 0.000000 -0.349572 -0.233796 0.907270
124 1 18.655000 30.135000 4.305000 -0.421357 -0.242243 0.873943
125 1 18.655000 33.005000 1.435000 -0.350513 -0.181889 0.918726
126 1 17.220000 31.570000 2.870000 -0.433660 -0.179613 0.882994
127 1 17.220000 34.440000 0.000000 -0.358671 -0.269748 0.893639
128 1 18.655000 35.875000 4.305000 -0.505604 -0.318549 0.801805
129 1 18.655000 38.745000 1.435000 -0.546797 -0.175866 0.818586
130 1 17.220000 37.310000 2.870000 -0.418772 -0.149996 0.895618
131 1 17.220000 40.180000 0.000000 -0.579305 -0.134177 0.803991
132 1 18.655000 41.615000 4.305000 -0.508604 -0.098742 0.855320
133 1 18.655000 44.485000 1.435000 -0.645403 -0.034263 0.763074
134 1 17.220000 43.050000 2.870000 -0.503462 -0.203943 0.839603
135 1 17.220000 45.920000 0.000000 -0.572733 -0.068925 0.816839
136 1 18.655000 47.355000 4.305000 -0.585006 -0.106518 0.804004
137 1 18.655000 50.225000 1.435000 -0.588520 0.029353 0.807950
138 1 17.220000 48.790000 2.870000 -0.576940 -0.089841 0.811831
139 1 17.220000 51.660000 0.000000 -0.525394 -0.008057 0.850821
140 1 18.655000 53.095000 4.305000 -0.594154 0.117938 0.795658
141 1 18.655000 55.965000 1.435000 -0.508170 0.210044 0.835252
142 1 17.220000 54.530000 2.870000 -0.493854 0.105905 0.863071
143 1 17.220000 57.400000 0.000000 -0.546400 0.145133 0.824853
144 1 18.655000 58.835000 4.305000 -0.666666 0.101071 0.738472
145 1 18.655000 61.705000 1.435000 -0.496187 0.213930 0.841447
146 1 17.220000 60.270000 2.870000 -0.528775 0.251913 0.810517
147 1 17.220000 63.140000 0.000000 -0.529321 0.177304 0.829688
148 1 18.655000 64.575000 4.305000 -0.491941 0.122387 0.861983
149 1 18.655000 67.445000 1.435000 -0.475753 0.262107 0.839618
150 1 17.220000 66.010000 2.870000 -0.497624 0.192953 0.845659
151 1 17.220000 68.880000 0.000000 -0.410870 0.284010 0.866328
152 1 18.655000 70.315000 4.305000 -0.386182 0.239556 0.890773
153 1 18.655000 73.185000 1.435000 -0.365967 0.212936 0.905939
154 1 17.220000 71.750000 2.870000 -0.394195 0.317198 0.862552
155 1 17.220000 74.620000 0.000000 -0.346556 0.244848 0.905510
156 1 18.655000 76.055000 4.305000 -0.303121 0.272540 0.913148
157 1 18.655000 78.925000 1.435000 -0.297485 0.220601 0.928891
158 1 17.220000 77.490000 2.870000 -0.361058 0.144171 0.921331
159 1 17.220000 80.360000 0.000000 -0.158656 0.210141 0.964712
160 1 18.655000 81.795000 4.305000 -0.197871 0.355782 0.913381
161 1 21.525000 15.785000 4.305000 -0.233165 -0.322797 0.917298
162 1 21.525000 18.655000 1.435000 -0.252313 -0.329700 0.909745
163 1 20.090000 17.220000 2.870000 -0.234541 -0.273988 0.932696
164 1 20.090000 20.090000 0.000000 -0.205368 -0.247359 0.946909
165 1 21.525000 21.525000 4.305000 -0.262743 -0.306144 0.915009
166 1 21.525000 24.395000 1.435000 -0.305249 -0.350592 0.885386
167 1 20.090000 22.960000 2.870000 -0.320828 -0.317518 0.892330
168 1 20.090000 25.830000 0.000000 -0.244695 -0.342069 0.907256
169 1 21.525000 27.265000 4.305000 -0.414722 -0.329497 0.848196
170 1 21.525000 30.135000 1.435000 -0.482019 -0.303186 0.822032
171 1 20.090000 28.700000 2.870000 -0.383442 -0.285390 0.878365
172 1 20.090000 31.570000 0.000000 -0.457164 -0.282523 0.843316
173 1 21.525000 33.005000 4.305000 -0.455288 -0.335079 0.824884
174 1 21.525000 35.875000 1.435000 -0.484647 -0.339734 0.806039
175 1 20.090000 34.440000 2.870000 -0.532340 -0.230166 0.814640
176 1 20.090000 37.310000 0.000000 -0.581675 -0.286935 0.761133
177 1 21.525000 38.745000 4.305000 -0.555472 -0.268490 0.786997
178 1 21.525000 41.615000 1.435000 -0.701461 -0.185652 0.688103
179 1 20.090000 40.180000 2.870000 -0.617290 -0.189404 0.763596
180 1 20.090000 43.050000 0.000000 -0.639489 -0.092912 0.763165
181 1 21.525000 44.485000 4.305000 -0.616569 -0.183860 0.765532
182 1 21.525000 47.355000 1.435000 -0.647631 -0.198922 0.735530
183 1 20.090000 45.920000 2.870000 -0.606775 -0.096894 0.788946
184 1 20.090000 48.790000 0.000000 -0.667148 -0.021514 0.744615
185 1 21.525000 50.225000 4.305000 -0.644822 0.018631 0.764106
186 1 21.525000 53.095000 1.435000 -0.700438 0.049435 0.711999
187 1 20.090000 51.660000 2.870000 -0.626624 0.014785 0.779182
188 1 20.090000 54.530000 0.000000 -0.566890 0.149581 0.810100
189 1 21.525000 55.965000 4.305000 -0.674486 0.132428 0.726314
190 1 21.525000 58.835000 1.435000 -0.667365 0.098505 0.738188
191 1 20.090000 57.400000 2.870000 -0.587772 0.227178 0.776476
192 1 20.090000 60.270000 0.000000 -0.623771 0.254696 0.738945
193 1 21.525000 61.705000 4.305000 -0.597257 0.291338 0.747266
194 1 21.525000 64.575000 1.435000 -0.490799 0.299397 0.818216
195 1 20.090000 63.140000 2.870000 -0.483908 0.337067 0.807601
196 1 20.090000 66.010000 0.000000 -0.491111 0.245742 0.835716
197 1 21.525000 67.445000 4.305000 -0.446439 0.255641 0.857519
198 1 21.525000 70.315000 1.435000 -0.433181 0.315743 0.844192
199 1 20.090000 68.880000 2.870000 -0.395745 0.257352 0.881565
200 1 20.090000 71.750000 0.000000 -0.419971 0.249296 0.872626
201 1 21.525000 73.185000 4.305000 -0.330365 0.253892 0.909064
202 1 21.525000 76.055000 1.435000 -0.239734 0.296453 0.924469
203 1 20.090000 74.620000 2.870000 -0.409590 0.234795 0.881537
204 1 20.090000 77.490000 0.000000 -0.222884 0.307601 0.925043
205 1 21.525000 78.925000 4.305000 -0.243924 0.209425 0.946912
206 1 21.525000 81.795000 1.435000 -0.228192 0.267067 0.936271
207 1 20.090000 80.360000 2.870000 -0.241271 0.281980 0.928588
208 1 20.090000 83.230000 0.000000 -0.181605 0.312657 0.932344
209 1 21.525000 84.665000 4.305000 -0.137329 0.243751 0.960066
210 1 24.395000 15.785000 1.435000 -0.212427 -0.273218 0.938204
211 1 22.960000 14.350000 2.870000 -0.284702 -0.186525 0.940294
212 1 22.960000 17.220000 0.000000 -0.269213 -0.352510 0.896248
213 1 24.395000 18.655000 4.305000 -0.230196 -0.332047 0.914743
214 1 24.395000 21.525000 1.435000 -0.330287 -0.317118 0.889014
215 1 22.960000 20.090000 2.870000 -0.280465 -0.369971 0.885698
216 1 22.960000 22.960000 0.000000 -0.313814 -0.428987 0.847048
217 1 24.395000 24.395000 4.305000 -0.334189 -0.291050 0.896441
218 1 24.395000 27.265000 1.435000 -0.368650 -0.395076 0.841435
219 1 22.960000 25.830000 2.870000 -0.246703 -0.337226 0.908524
220 1 22.960000 28.700000 0.000000 -0.423514 -0.322660 0.846479
221 1 24.395000 30.135000 4.305000 -0.478119 -0.375916 0.793781
222 1 24.395000 33.005000 1.435000 -0.531761 -0.370025 0.761782
223 1 22.960000 31.570000 2.870000 -0.555394 -0.282935 0.781976
224 1 22.960000 34.440000 0.000000 -0.547995 -0.279843 0.788283
225 1 24.395000 35.875000 4.305000 -0.621120 -0.352085 0.700176
226 1 24.395000 38.745000 1.435000 -0.616051 -0.305611 0.726005
227 1 22.960000 37.310000 2.870000 -0.547832 -0.214894 0.808518
228 1 22.960000 40.180000 0.000000 -0.654497 -0.243089 0.715920
229 1 24.395000 41.615000 4.305000 -0.733164 -0.185958 0.654133
230 1 24.395000 44.485000 1.435000 -0.734551 -0.119541 0.667940
231 1 22.960000 43.050000 2.870000 -0.721991 -0.120787 0.681278
232 1 22.960000 45.920000 0.000000 -0.703758 -0.080262 0.705892
233 1 24.395000 47.355000 4.305000 -0.723978 -0.137445 0.675991
234 1 24.395000 50.225000 1.435000 -0.744710 -0.018629 0.667128
235 1 22.960000 48.790000 2.870000 -0.775325 -0.104935 0.622783
236 1 22.960000 51.660000 0.000000 -0.665707 -0.018834 0.745976
237 1 24.395000 53.095000 4.305000 -0.783365 0.160508 0.600480
238 1 24.395000 55.965000 1.435000 -0.723383 0.140503 0.675999
239 1 22.960000 54.530000 2.870000 -0.698463 0.171144 0.694881
240 1 22.960000 57.400000 0.000000 -0.673207 0.167944 0.720130
241 1 24.395000 58.835000 4.305000 -0.723322 0.162986 0.671000
242 1 24.395000 61.705000 1.435000 -0.611828 0.305936 0.729431
243 1 22.960000 60.270000 2.870000 -0.639440 0.260881 0.723227
244 1 22.960000 63.140000 0.000000 -0.623873 0.293956 0.724136
245 1 24.395000 64.575000 4.305000 -0.550285 0.240045 0.799728
246 1 24.395000 67.445000 1.435000 -0.472720 0.350074 0.808693
247 1 22.960000 66.010000 2.870000 -0.486395 0.398710 0.777464
248 1 22.960000 68.880000 0.000000 -0.517727 0.287283 0.805870
249 1 24.395000 70.315000 4.305000 -0.431711 0.326510 0.840843
250 1 24.395000 73.185000 1.435000 -0.454941 0.343510 0.821602
251 1 22.960000 71.750000 2.870000 -0.475763 0.273476 0.835979
252 1 22.960000 74.620000 0.000000 -0.280169 0.255552 0.925310
253 1 24.395000 76.055000 4.305000 -0.328806 0.370445 0.868710
254 1 24.395000 78.925000 1.435000 -0.259902 0.304520 0.916361
255 1 22.960000 77.490000 2.870000 -0.177797 0.303616 0.936058
256 1 22.960000 80.360000 0.000000 -0.276184 0.272287 0.921728
257 1 24.395000 81.795000 4.305000 -0.261649 0.373171 0.890103
258 1 24.395000 84.665000 1.435000 -0.226034 0.299928 0.926797
259 1 22.960000 83.230000 2.870000 -0.209139 0.214114 0.954157
260 1 27.265000 12.915000 1.435000 -0.188854 -0.292108 0.937554
261 1 25.830000 14.350000 0.000000 -0.184338 -0.348882 0.918858
262 1 27.265000 15.785000 4.305000 -0.180012 -0.288247 0.940484
263 1 27.265000 18.655000 1.435000 -0.220032 -0.338633 0.914830
264 1 25.830000 17.220000 2.870000 -0.311595 -0.291839 0.904289
265 1 25.830000 20.090000 0.000000 -0.272420 -0.419994 0.865675
266 1 27.265000 21.525000 4.305000 -0.246838 -0.375994 0.893140
267 1 27.265000 24.395000 1.435000 -0.341936 -0.385204 0.857145
268 1 25.830000 22.960000 2.870000 -0.357155 -0.365450 0.859585
269 1 25.830000 25.830000 0.000000 -0.393244 -0.387123 0.833963
270 1 27.265000 27.265000 4.305000 -0.463558 -0.372235 0.804086
271 1 27.265000 30.135000 1.435000 -0.459127 -0.414089 0.785960
272 1 25.830000 28.700000 2.870000 -0.470054 -0.367377 0.802548
273 1 25.830000 31.570000 0.000000 -0.501057 -0.347072 0.792769
274 1 27.265000 33.005000 4.305000 -0.481184 -0.423107 0.767752
275 1 27.265000 35.875000 1.435000 -0.550008 -0.438594 0.710723
276 1 25.830000 34.440000 2.870000 -0.545962 -0.316195 0.775852
277 1 25.830000 37.310000 0.000000 -0.675431 -0.357764 0.644824
278 1 27.265000 38.745000 4.305000 -0.719066 -0.382711 0.580065
279 1 27.265000 41.615000 1.435000 -0.723469 -0.255020 0.641527
280 1 25.830000 40.180000 2.870000 -0.735484 -0.230430 0.637154
281 1 25.830000 43.050000 0.000000 -0.781996 -0.189002 0.593937
282 1 27.265000 44.485000 4.305000 -0.787540 -0.187345 0.587097
283 1 27.265000 47.355000 1.435000 -0.850164 0.026393 0.525855
284 1 25.830000 45.920000 2.870000 -0.804866 -0.162292 0.570834
285 1 25.830000 48.790000 0.000000 -0.783399 0.017950 0.621259
286 1 27.265000 50.225000 4.305000 -0.842866 -0.032055 0.537168
287 1 27.265000 53.095000 1.435000 -0.832994 0.140409 0.535170
288 1 25.830000 51.660000 2.870000 -0.783973 0.118224 0.609434
289 1 25.830000 54.530000 0.000000 -0.788135 0.123320 0.603022
290 1 27.265000 55.965000 4.305000 -0.740687 0.229717 0.631358
291 1 27.265000 58.835000 1.435000 -0.789661 0.261517 0.555017
292 1 25.830000 57.400000 2.870000 -0.717550 0.207844 0.664773
293 1 25.830000 60.270000 0.000000 -0.699819 0.297546 0.649400
294 1 27.265000 61.705000 4.305000 -0.624770 0.479084 0.616556
295 1 27.265000 64.575000 1.435000 -0.600975 0.419748 0.680177
296 1 25.830000 63.140000 2.870000 -0.566613 0.392258 0.724627
297 1 25.830000 66.010000 0.000000 -0.512193 0.411626 0.753805
298 1 27.265000 67.445000 4.305000 -0.489190 0.444481 0.750420
299 1 27.265000 70.315000 1.435000 -0.411452 0.464030 0.784464
300 1 25.830000 68.880000 2.870000 -0.491582 0.450682 0.745140
301 1 25.830000 71.750000 0.000000 -0.418257 0.373256 0.828095
302 1 27.265000 73.185000 4.305000 -0.348946 0.431982 0.831642
303 1 27.265000 76.055000 1.435000 -0.389672 0.408524 0.825387
304 1 25.830000 74.620000 2.870000 -0.272298 0.375212 0.886042
305 1 25.830000 77.490000 0.000000 -0.299323 0.431367 0.851075
306 1 27.265000 78.925000 4.305000 -0.277436 0.400359 0.873351
307 1 27.265000 81.795000 1.435000 -0.257876 0.340299 0.904266
308 1 25.830000 80.360000 2.870000 -0.327375 0.352608 0.876637
309 1 25.830000 83.230000 0.000000 -0.181689 0.256170 0.949403
310 1 27.265000 84.665000 4.305000 -0.188348 0.391993 0.900481
311 1 27.265000 87.535000 1.435000 -0.211490 0.398804 0.892316
312 1 25.830000 86.100000 2.870000 -0.301561 0.309732 0.901736
313 1 30.135000 10.045000 1.435000 -0.196403 -0.258344 0.945877
314 1 28.700000 11.480000 0.000000 -0.181182 -0.339864 0.922857
315 1 30.135000 12.915000 4.305000 -0.133074 -0.309054 0.941689
316 1 30.135000 15.785000 1.435000 -0.261603 -0.434897 0.861643
317 1 28.700000 14.350000 2.870000 -0.202082 -0.322007 0.924918
318 1 28.700000 17.220000 0.000000 -0.199947 -0.390374 0.898682
319 1 30.135000 18.655000 4.305000 -0.257774 -0.344119 0.902848
320 1 30.135000 21.525000 1.435000 -0.277771 -0.402408 0.872302
321 1 28.700000 20.090000 2.870000 -0.252477 -0.332682 0.908613
322 1 28.700000 22.960000 0.000000 -0.279466 -0.401779 0.872051
323 1 30.135000 24.395000 4.305000 -0.401450 -0.380141 0.833265
324 1 30.135000 27.265000 1.435000 -0.490584 -0.473535 0.731499
325 1 28.700000 25.830000 2.870000 -0.352655 -0.482014 0.802058
326 1 28.700000 28.700000 0.000000 -0.564101 -0.490157 0.664482
327 1 30.135000 30.135000 4.305000 -0.543846 -0.432399 0.719210
328 1 30.135000 33.005000 1.435000 -0.543539 -0.530820 0.650227
329 1 28.700000 31.570000 2.870000 -0.485992 -0.473911 0.734316
330 1 28.700000 34.440000 0.000000 -0.568766 -0.459458 0.682204
331 1 30.135000 35.875000 4.305000 -0.618838 -0.545532 0.565185
332 1 30.135000 38.745000 1.435000 -0.738577 -0.448053 0.503738
333 1 28.700000 37.310000 2.870000 -0.646620 -0.408890 0.643966
334 1 28.700000 40.180000 0.000000 -0.733315 -0.280400 0.619374
335 1 30.135000 41.615000 4.305000 -0.784133 -0.363729 0.502829
336 1 30.135000 44.485000 1.435000 -0.858551 -0.198563 0.472718
337 1 28.700000 43.050000 2.870000 -0.758018 -0.291107 0.583665
338 1 28.700000 45.920000 0.000000 -0.880512 -0.062881 0.469835
339 1 30.135000 47.355000 4.305000 -0.903396 -0.122118 0.411051
340 1 30.135000 50.225000 1.435000 -0.914322 -0.005451 0.404952
341 1 28.700000 48.790000 2.870000 -0.873850 -0.080479 0.479489
342 1 28.700000 51.660000 0.000000 -0.830715 0.166678 0.531161
343 1 30.135000 53.095000 4.305000 -0.889114 0.144748 0.434194
344 1 30.135000 55.965000 1.435000 -0.902758 0.243094 0.354870
345 1 28.700000 54.530000 2.870000 -0.851041 0.218434 0.477509
346 1 28.700000 57.400000 0.000000 -0.822088 0.247113 0.512939
347 1 30.135000 58.835000 4.305000 -0.745099 0.385776 0.544063
348 1 30.135000 61.705000 1.435000 -0.715956 0.460745 0.524520
349 1 28.700000 60.270000 2.870000 -0.718352 0.384789 0.579575
350 1 28.700000 63.140000 0.000000 -0.661507 0.430467 0.614090
351 1 30.135000 64.575000 4.305000 -0.642541 0.468409 0.606411
352 1 30.135000 67.445000 1.435000 -0.569895 0.483676 0.664287
353 1 28.700000 66.010000 2.870000 -0.564566 0.479486 0.671833
354 1 28.700000 68.880000 0.000000 -0.571077 0.529962 0.626907
355 1 30.135000 70.315000 4.305000 -0.461121 0.440821 0.770094
356 1 30.135000 73.185000 1.435000 -0.447840 0.397794 0.800749
357 1 28.700000 71.750000 2.870000 -0.458752 0.461998 0.759015
358 1 28.700000 74.620000 0.000000 -0.376924 0.469057 0.798695
359 1 30.135000 76.055000 4.305000 -0.327939 0.474891 0.816661
360 1 30.135000 78.925000 1.435000 -0.292049 0.466027 0.835180
361 1 28.700000 77.490000 2.870000 -0.343812 0.403156 0.848091
362 1 28.700000 80.360000 0.000000 -0.166727 0.404086 0.899398
363 1 30.135000 81.795000 4.305000 -0.197692 0.412549 0.889225
364 1 30.135000 84.665000 1.435000 -0.215544 0.355401 0.909522
365 1 28.700000 83.230000 2.870000 -0.186794 0.349224 0.918232
366 1 28.700000 86.100000 0.000000 -0.214730 0.360738 0.907612
367 1 30.135000 87.535000 4.305000 -0.120384 0.326832 0.937384
368 1 28.700000 88.970000 2.870000 -0.287567 0.374880 0.881346
369 1 33.005000 10.045000 4.305000 -0.078694 -0.360191 0.929554
370 1 33.005000 12.915000 1.435000 -0.196871 -0.354039 0.914274
371 1 31.570000 11.480000 2.870000 -0.159983 -0.304726 0.938907
372 1 31.570000 14.350000 0.000000 -0.161896 -0.353195 0.921435
373 1 33.005000 15.785000 4.305000 -0.079890 -0.407274 0.909805
374 1 33.005000 18.655000 1.435000 -0.184297 -0.380762 0.906121
375 1 31.570000 17.220000 2.870000 -0.178073 -0.421300 0.889267
376 1 31.570000 20.090000 0.000000 -0.335177 -0.433465 0.836519
377 1 33.005000 21.525000 4.305000 -0.290068 -0.464336 0.836811
378 1 33.005000 24.395000 1.435000 -0.334290 -0.453321 0.826287
379 1 31.570000 22.960000 2.870000 -0.325167 -0.413027 0.850691
380 1 31.570000 25.830000 0.000000 -0.429794 -0.457312 0.778552
381 1 33.005000 27.265000 4.305000 -0.443000 -0.500681 0.743686
382 1 33.005000 30.135000 1.435000 -0.480980 -0.578158 0.659084
383 1 31.570000 28.700000 2.870000 -0.454854 -0.533411 0.713149
384 1 31.570000 31.570000 0.000000 -0.583345 -0.590669 0.557511
385 1 33.005000 33.005000 4.305000 -0.547464 -0.578423 0.604739
386 1 33.005000 35.875000 1.435000 -0.584117 -0.558251 0.589205
387 1 31.570000 34.440000 2.870000 -0.624709 -0.590847 0.510528
388 1 31.570000 37.310000 0.000000 -0.641609 -0.603118 0.473907
389 1 33.005000 38.745000 4.305000 -0.750058 -0.402869 0.524510
390 1 33.005000 41.615000 1.435000 -0.829759 -0.393241 0.396058
391 1 31.570000 40.180000 2.870000 -0.776700 -0.420218 0.469206
392 1 31.570000 43.050000 0.000000 -0.857063 -0.359347 0.369206
393 1 33.005000 44.485000 4.305000 -0.934487 -0.282119 0.217125
394 1 33.005000 47.355000 1.435000 -0.948453 -0.131176 0.288497
395 1 31.570000 45.920000 2.870000 -0.906691 -0.292958 0.303459
396 1 31.570000 48.790000 0.000000 -0.940147 -0.116317 0.320303
397 1 33.005000 50.225000 4.305000 -0.970822 -0.036431 0.237020
398 1 33.005000 53.095000 1.435000 -0.960206 0.135157 0.244414
399 1 31.570000 51.660000 2.870000 -0.950061 0.099358 0.295825
400 1 31.570000 54.530000 0.000000 -0.879752 0.234156 0.413771
401 1 33.005000 55.965000 4.305000 -0.906242 0.298601 0.299270
402 1 33.005000 58.835000 1.435000 -0.818444 0.442388 0.366664
403 1 31.570000 57.400000 2.870000 -0.892278 0.310764 0.327515
404 1 31.570000 60.270000 0.000000 -0.774096 0.416245 0.476986
405 1 33.005000 61.705000 4.305000 -0.744432 0.531881 0.403638
406 1 33.005000 64.575000 1.435000 -0.617968 0.550860 0.560954
407 1 31.570000 63.140000 2.870000 -0.693104 0.567460 0.444519
408 1 31.570000 66.010000 0.000000 -0.576561 0.545101 0.608640
409 1 33.005000 67.445000 4.305000 -0.566867 0.565921 0.598661
410 1 33.005000 70.315000 1.435000 -0.436691 0.557609 0.705955
411 1 31.570000 68.880000 2.870000 -0.560565 0.474979 0.678352
412 1 31.570000 71.750000 0.000000 -0.316070 0.485725 0.814967
413 1 33.005000 73.185000 4.305000 -0.325283 0.532643 0.781334
414 1 33.005000 76.055000 1.435000 -0.266254 0.518765 0.812399
415 1 31.570000 74.620000 2.870000 -0.419677 0.467471 0.778037
416 1 31.570000 77.490000 0.000000 -0.379294 0.475348 0.793839
417 1 33.005000 78.925000 4.305000 -0.275431 0.409470 0.869754
418 1 33.005000 81.795000 1.435000 -0.197948 0.347907 0.916394
419 1 31.570000 80.360000 2.870000 -0.194792 0.360099 0.912351
420 1 31.570000 83.230000 0.000000 -0.202809 0.368250 0.907337
421 1 33.005000 84.665000 4.305000 -0.162486 0.390929 0.905965
422 1 33.005000 87.535000 1.435000 -0.218238 0.383636 0.897327
423 1 31.570000 86.100000 2.870000 -0.198040 0.328978 0.923338
424 1 31.570000 88.970000 0.000000 -0.086939 0.362010 0.928111
425 1 33.005000 90.405000 4.305000 -0.177152 0.283859 0.942360
426 1 35.875000 10.045000 1.435000 -0.117662 -0.235338 0.964765
427 1 34.440000 8.610000 2.870000 -0.108083 -0.328090 0.938443
428 1 34.440000 11.480000 0.000000 -0.146299 -0.309677 0.939520
429 1 35.875000 12.915000 4.305000 -0.197244 -0.479504 0.855085
430 1 35.875000 15.785000 1.435000 -0.167096 -0.530240 0.831219
431 1 34.440000 14.350000 2.870000 -0.161805 -0.286682 0.944263
432 1 34.440000 17.220000 0.000000 -0.170551 -0.444735 0.879274
433 1 35.875000 18.655000 4.305000 -0.171727 -0.496477 0.850894
434 1 35.875000 21.525000 1.435000 -0.236933 -0.540107 0.807556
435 1 34.440000 20.090000 2.870000 -0.251616 -0.503768 0.826382
436 1 34.440000 22.960000 0.000000 -0.346129 -0.523086 0.778830
437 1 35.875000 24.395000 4.305000 -0.275642 -0.576740 0.769020
438 1 35.875000 27.265000 1.435000 -0.359820 -0.575309 0.734540
439 1 34.440000 25.830000 2.870000 -0.366380 -0.635395 0.679735
440 1 34.440000 28.700000 0.000000 -0.445995 -0.619925 0.645586
441 1 35.875000 30.135000 4.305000 -0.470916 -0.639310 0.607882
442 1 35.875000 33.005000 1.435000 -0.562101 -0.704085 0.433942
443 1 34.440000 31.570000 2.870000 -0.570292 -0.626872 0.530848
444 1 34.440000 34.440000 0.000000 -0.599649 -0.551678 0.579718
445 1 35.875000 35.875000 4.305000 -0.682822 -0.594418 0.424760
446 1 35.875000 38.745000 1.435000 -0.744641 -0.610130 0.270649
447 1 34.440000 37.310000 2.870000 -0.718323 -0.561776 0.410389
448 1 34.440000 40.180000 0.000000 -0.795408 -0.480439 0.369464
449 1 35.875000 41.615000 4.305000 -0.809203 -0.584348 0.061052
450 1 35.875000 44.485000 1.435000 -0.894853 -0.437409 0.088945
451 1 34.440000 43.050000 2.870000 -0.864734 -0.444629 0.233539
452 1 34.440000 45.920000 0.000000 -0.955987 -0.291134 0.036462
453 1 35.875000 47.355000 4.305000 -0.986444 -0.160577 -0.033804
454 1 35.875000 50.225000 1.435000 -0.998634 0.015283 0.049957
455 1 34.440000 48.790000 2.870000 -0.974060 -0.124445 0.188999
456 1 34.440000 51.660000 0.000000 -0.990830 0.103500 0.086859
457 1 35.875000 53.095000 4.305000 -0.985192 0.167401 0.037064
458 1 35.875000 55.965000 1.435000 -0.933242 0.357617 0.034183
459 1 34.440000 54.530000 2.870000 -0.945863 0.287245 0.151105
460 1 34.440000 57.400000 0.000000 -0.850562 0.398780 0.342811
461 1 35.875000 58.835000 4.305000 -0.806009 0.500914 0.315332
462 1 35.875000 61.705000 1.435000 -0.726446 0.613429 0.309809
463 1 34.440000 60.270000 2.870000 -0.727040 0.601509 0.331057
464 1 34.440000 63.140000 0.000000 -0.711407 0.592177 0.378453
465 1 35.875000 64.575000 4.305000 -0.567383 0.703679 0.427682
466 1 35.875000 67.445000 1.435000 -0.570166 0.643743 0.510397
467 1 34.440000 66.010000 2.870000 -0.585506 0.633959 0.505251
468 1 34.440000 68.880000 0.000000 -0.459622 0.645474 0.610010
469 1 35.875000 70.315000 4.305000 -0.441287 0.671808 0.594928
470 1 35.875000 73.185000 1.435000 -0.315329 0.629696 0.709965
471 1 34.440000 71.750000 2.870000 -0.358625 0.621149 0.696823