LAMMPS (11 Feb 2026 - Development - patch_11Feb2026-274-gb4dcbc8748)
  using 1 OpenMP thread(s) per MPI task
processors      * * * map xyz

units           real
atom_style      full
boundary        p p p

read_data       initial.data
Reading data file ...
  orthogonal box = (-10 -10 -50) to (10 10 50)
  1 by 1 by 1 MPI processor grid
  reading atoms ...
  1534 atoms
  reading velocities ...
  1534 velocities
  scanning bonds ...
  2 = max bonds/atom
  scanning angles ...
  1 = max angles/atom
  orthogonal box = (-10 -10 -50) to (10 10 50)
  1 by 1 by 1 MPI processor grid
  reading bonds ...
  1022 bonds
  reading angles ...
  511 angles
Finding 1-2 1-3 1-4 neighbors ...
  special bond factors lj:    0        0        0       
  special bond factors coul:  0        0        0       
     2 = max # of 1-2 neighbors
     1 = max # of 1-3 neighbors
     1 = max # of 1-4 neighbors
     2 = max # of special neighbors
  special bonds CPU = 0.000 seconds
  read_data CPU = 0.057 seconds

pair_style      mbx 9.0

# Define bonds and angles to use if using SHAKE constraints
bond_style      zero
angle_style     zero
bond_coeff      1 0.98823 # from PIMD
angle_coeff     1 105.50896 # from PIMD

pair_coeff      * * 2 na+ 1 h2o 2 3 3 json mbx.json

neighbor        2.0 bin
neigh_modify    every 1 delay 10

timestep        0.5

compute         mbx all pair mbx
variable        e1bpip    equal c_mbx[1]
variable        e2bpip    equal c_mbx[2]
variable        e3bpip    equal c_mbx[3]
variable        e4bpip    equal c_mbx[4]
variable        edisp     equal c_mbx[5]
variable        ebuck     equal c_mbx[6]
variable        eperm     equal c_mbx[7]
variable        eind      equal c_mbx[8]
variable        eele      equal c_mbx[9]
variable        etot      equal c_mbx[10]

fix             1 all nvt temp 100 100 $(1000.0*dt)
fix             1 all nvt temp 100 100 500

velocity        all create 298 428459 rot yes dist gaussian
velocity        all zero linear
velocity        all zero angular

thermo_style    custom step time temp etotal ke pe enthalpy density lx ly lz vol pxx pyy pzz press
thermo          1
thermo_modify   flush yes

# fix             verbose_mbx_thermo_print all print 1 "$(step) $(0.001*time) $(temp) $(etotal) $(ke) $(pe) $(enthalpy) $(density) $(lx) $(ly) $(lz) $(vol) $(pxx) $(pyy) $(pzz) $(press) $(v_e1bpip) $(v_e2bpip) $(v_e3bpip) $(v_e4bpip) $(v_edisp) $(v_ebuck) $(v_eperm) $(v_eind) $(v_eele) $(v_etot)" file mbx_thermo.out screen no title "# step time temp etotal ke pe enthalpy density lx ly lz vol pxx pyy pzz press e1bpip e2bpip e3bpip e4bpip edisp ebuck eperm eind eele etot"

# dump            1 all custom 1 dump.lammpstrj id mol type q x y z
# dump_modify     1 append no sort id format line "%d %d %d %8.4f %15.8f %15.8f %15.8f"

# restart         10 restart.1 restart.2

run             100

CITE-CITE-CITE-CITE-CITE-CITE-CITE-CITE-CITE-CITE-CITE-CITE-CITE

Your simulation uses code contributions which should be cited:

- pair mbx command:

@article{10.1063/5.0156036,
 author = {Riera, Marc and Knight, Christopher and Bull-Vulpe, Ethan F. and Zhu, Xuanyu and Agnew, Henry and Smith, Daniel G. A. and Simmonett, Andrew C. and Paesani, Francesco},
 title = "{MBX: A many-body energy and force calculator for data-driven many-body simulations}",
 journal = {The Journal of Chemical Physics},
 volume = {159},
 number = {5},
 pages = {054802},
 year = {2023},
 doi = {10.1063/5.0156036},
 version = {1.3.12}
}

CITE-CITE-CITE-CITE-CITE-CITE-CITE-CITE-CITE-CITE-CITE-CITE-CITE

Generated 0 of 3 mixed pair_coeff terms from geometric mixing rule
Neighbor list info ...
  update: every = 1 steps, delay = 10 steps, check = yes
  max neighbors/atom: 2000, page size: 100000
  master list distance cutoff = 11
  ghost atom cutoff = 11
  binsize = 5.5, bins = 4 4 19
  1 neighbor lists, perpetual/occasional/extra = 1 0 0
  (1) pair mbx, perpetual
      attributes: half, newton on
      pair build: half/bin/newton
      stencil: half/bin/3d
      bin: standard
Per MPI rank memory allocation (min/avg/max) = 8.784 | 8.784 | 8.784 Mbytes
   Step          Time           Temp          TotEng         KinEng         PotEng        Enthalpy       Density           Lx             Ly             Lz           Volume          Pxx            Pyy            Pzz           Press     
         0   0              298           -3243.6847      1361.7354     -4605.4201     -3659.9061      0.38301942     20             20             100            40000         -636.37649     -547.97788     -956.11844     -713.49094    
         1   0.5            295.83833     -3243.6773      1351.8575     -4595.5348     -3647.0291      0.38301942     20             20             100            40000         -636.17688     -651.22248     -786.89029     -691.42988    
         2   1              293.01096     -3243.4325      1338.9375     -4582.37       -3600.7387      0.38301942     20             20             100            40000         -582.9714      -680.57763     -573.94514     -612.49805    
         3   1.5            290.34508     -3243.0911      1326.7556     -4569.8467     -3531.4507      0.38301942     20             20             100            40000         -477.64537     -648.98742     -356.29407     -494.30895    
         4   2              288.99207     -3242.8766      1320.5729     -4563.4495     -3454.1239      0.38301942     20             20             100            40000         -335.60431     -579.06071     -171.70205     -362.12236    
         5   2.5            289.72559     -3242.9295      1323.9248     -4566.8543     -3382.5152      0.38301942     20             20             100            40000         -184.27027     -493.6468      -39.920679     -239.27925    
         6   3              292.47495     -3243.2438      1336.4882     -4579.732      -3324.756       0.38301942     20             20             100            40000         -56.330901     -407.71863      44.862307     -139.72907    
         7   3.5            296.32159     -3243.7035      1354.0657     -4597.7692     -3282.3554      0.38301942     20             20             100            40000          20.109385     -324.91413      106.03255     -66.257397    
         8   4              299.89577     -3244.1127      1370.3982     -4614.5109     -3252.511       0.38301942     20             20             100            40000          30.580113     -240.42775      166.65813     -14.396503    
         9   4.5            302.03876     -3244.2583      1380.1908     -4624.4491     -3232.4757      0.38301942     20             20             100            40000         -23.019061     -150.10916      233.72187      20.197886    
        10   5              302.45453     -3244.0856      1382.0907     -4626.1763     -3223.5687      0.38301942     20             20             100            40000         -127.88752     -60.61843       294.01664      35.170232    
        11   5.5            301.84381     -3243.7944      1379.3        -4623.0944     -3231.7047      0.38301942     20             20             100            40000         -268.93836      7.4853271      323.62553      20.724167    
        12   6              301.29879     -3243.6595      1376.8095     -4620.469      -3263.4505      0.38301942     20             20             100            40000         -433.95083      27.665118      304.50772     -33.925998    
        13   6.5            301.48528     -3243.7583      1377.6616     -4621.4199     -3320.7605      0.38301942     20             20             100            40000         -613.5974      -19.438297      237.04159     -131.99804    
        14   7              302.36773     -3243.9536      1381.6941     -4625.6477     -3398.7312      0.38301942     20             20             100            40000         -798.999       -137.17365      140.2086      -265.32135    
        15   7.5            303.54942     -3244.1237      1387.0939     -4631.2176     -3487.1201      0.38301942     20             20             100            40000         -979.02612     -311.821        41.205993     -416.54704    
        16   8              304.62289     -3244.3046      1391.9992     -4636.3038     -3573.1908      0.38301942     20             20             100            40000         -1138.5438     -516.95493     -35.841533     -563.78009    
        17   8.5            305.14213     -3244.5552      1394.3719     -4638.9271     -3643.7625      0.38301942     20             20             100            40000         -1258.4309     -719.73717     -74.807945     -684.32532    
        18   9              304.54758     -3244.7744      1391.6551     -4636.4295     -3687.2583      0.38301942     20             20             100            40000         -1318.598      -888.49175     -68.441745     -758.5105     
        19   9.5            302.48772     -3244.7825      1382.2424     -4627.0249     -3697.0718      0.38301942     20             20             100            40000         -1304.3225     -1001.5352     -20.099156     -775.31894    
        20   10             299.32633     -3244.5339      1367.7961     -4612.3301     -3674.7447      0.38301942     20             20             100            40000         -1213.03       -1054.4386      55.053074     -737.47186    
        21   10.5           296.24957     -3244.1881      1353.7366     -4597.9248     -3629.7746      0.38301942     20             20             100            40000         -1056.5039     -1060.9414      134.51647     -660.97629    
        22   11             294.7475      -3244.0074      1346.8728     -4590.8802     -3575.4225      0.38301942     20             20             100            40000         -857.95587     -1045.0803      198.69049     -568.11522    
        23   11.5           295.77738     -3244.1859      1351.5789     -4595.7649     -3522.6134      0.38301942     20             20             100            40000         -646.3679      -1027.1378      241.65583     -477.28329    
        24   12             299.14762     -3244.7269      1366.9795     -4611.7064     -3475.482       0.38301942     20             20             100            40000         -451.07141     -1010.6797      275.06256     -395.56284    
        25   12.5           303.52565     -3245.4215      1386.9853     -4632.4068     -3431.2694      0.38301942     20             20             100            40000         -297.10172     -978.86882      320.22351     -318.58234    
        26   13             307.12503     -3245.9553      1403.433      -4649.3882     -3384.7882      0.38301942     20             20             100            40000         -201.51908     -904.04735      391.59994     -237.98883    
        27   13.5           308.70197     -3246.1207      1410.6389     -4656.7596     -3334.7438      0.38301942     20             20             100            40000         -171.41646     -766.92709      482.58768     -151.91862    
        28   14             308.21467     -3245.9516      1408.4121     -4654.3637     -3287.6749      0.38301942     20             20             100            40000         -204.83391     -574.16569      564.43205     -71.522518    
        29   14.5           306.73308     -3245.6683      1401.6419     -4647.3102     -3256.5982      0.38301942     20             20             100            40000         -293.19182     -362.18201      599.16495     -18.736295    
        30   15             305.72838     -3245.5372      1397.0509     -4642.588      -3255.2868      0.38301942     20             20             100            40000         -422.97647     -183.89867      556.73667     -16.712824    
        31   15.5           306.20138     -3245.7166      1399.2122     -4644.9289     -3291.3854      0.38301942     20             20             100            40000         -576.0007      -85.603403      426.74642     -78.285894    
        32   16             308.16426     -3246.1566      1408.1818     -4654.3384     -3362.0975      0.38301942     20             20             100            40000         -730.20799     -87.117042      221.08372     -198.74711    
        33   16.5           310.76012     -3246.683       1420.0438     -4666.7268     -3454.7482      0.38301942     20             20             100            40000         -862.69755     -175.93971     -31.365358     -356.66754    
        34   17             312.78507     -3247.1668      1429.297      -4676.4638     -3551.1955      0.38301942     20             20             100            40000         -952.95212     -316.27717     -294.27798     -521.16909    
        35   17.5           313.16963     -3247.5198      1431.0542     -4678.574      -3633.3561      0.38301942     20             20             100            40000         -984.95237     -465.9535      -533.30802     -661.40463    
        36   18             311.34933     -3247.6401      1422.7362     -4670.3763     -3688.177       0.38301942     20             20             100            40000         -949.60195     -591.6426      -724.27431     -755.17295    
        37   18.5           307.57876     -3247.5152      1405.5063     -4653.0215     -3711.2216      0.38301942     20             20             100            40000         -848.14403     -676.91512     -859.612       -794.89038    
        38   19             302.93768     -3247.2865      1384.2985     -4631.585      -3707.0704      0.38301942     20             20             100            40000         -693.84623     -721.94163     -948.71131     -788.16639    
        39   19.5           298.88947     -3247.1315      1365.7999     -4612.9314     -3685.9339      0.38301942     20             20             100            40000         -509.2798      -738.27035     -1009.0488     -752.19966    
        40   20             296.69537     -3247.1629      1355.7738     -4602.9367     -3658.4496      0.38301942     20             20             100            40000         -320.23177     -742.19999     -1052.6638     -705.03186    
        41   20.5           296.97993     -3247.4644      1357.0741     -4604.5385     -3631.2494      0.38301942     20             20             100            40000         -150.26891     -746.72144     -1076.6741     -657.88815    
        42   21             299.44029     -3248.0812      1368.3169     -4616.3981     -3604.3279      0.38301942     20             20             100            40000         -17.226499     -751.4884      -1063.3303     -610.68175    
        43   21.5           302.78429     -3248.8808      1383.5976     -4632.4785     -3571.3113      0.38301942     20             20             100            40000          68.808031     -737.10929     -989.8395      -552.71358    
        44   22             305.22231     -3249.5448      1394.7383     -4644.2831     -3523.7818      0.38301942     20             20             100            40000          105.65527     -673.12961     -842.82535     -470.0999     
        45   22.5           305.45976     -3249.811       1395.8234     -4645.6343     -3458.3564      0.38301942     20             20             100            40000          96.442331     -539.09525     -629.81935     -357.49076    
        46   23             303.5021      -3249.6779      1386.8777     -4636.5556     -3381.8221      0.38301942     20             20             100            40000          46.039579     -344.23278     -381.37583     -226.52301    
        47   23.5           300.66981     -3249.3708      1373.9353     -4623.3061     -3310.5553      0.38301942     20             20             100            40000         -40.773856     -130.52708     -143.34883     -104.88325    
        48   24             298.86479     -3249.2025      1365.6871     -4614.8896     -3264.3846      0.38301942     20             20             100            40000         -158.18244      44.240425      35.866081     -26.025311    
        49   24.5           299.53082     -3249.4208      1368.7306     -4618.1514     -3258.0424      0.38301942     20             20             100            40000         -296.48091      133.18405      118.95909     -14.779258    
        50   25             302.85165     -3250.0559      1383.9054     -4633.9613     -3294.4919      0.38301942     20             20             100            40000         -440.60203      120.50012      91.583986     -76.172641    
        51   25.5           307.64154     -3250.9175      1405.7932     -4656.7107     -3363.663       0.38301942     20             20             100            40000         -571.70993      24.280283     -32.378775     -193.26947    
        52   26             311.94952     -3251.7285      1425.4788     -4677.2073     -3447.0201      0.38301942     20             20             100            40000         -671.12525     -116.53519     -216.65237     -334.77094    
        53   26.5           313.9949      -3252.2409      1434.8254     -4687.0663     -3525.314       0.38301942     20             20             100            40000         -725.44333     -261.1011      -417.76955     -468.10466    
        54   27             313.00016     -3252.3518      1430.2798     -4682.6316     -3585.8725      0.38301942     20             20             100            40000         -731.859       -381.36921     -601.94582     -571.72468    
        55   27.5           309.52031     -3252.1883      1414.3784     -4666.5666     -3626.0636      0.38301942     20             20             100            40000         -701.01471     -467.21103     -754.47721     -640.90098    
        56   28             305.04816     -3252.0182      1393.9425     -4645.9607     -3651.4173      0.38301942     20             20             100            40000         -654.34704     -522.7839      -876.83124     -684.65406    
        57   28.5           301.19236     -3252.0209      1376.3231     -4628.344      -3670.0773      0.38301942     20             20             100            40000         -615.67686     -559.11238     -975.12084     -716.63669    
        58   29             299.0738      -3252.202       1366.6422     -4618.8442     -3687.5325      0.38301942     20             20             100            40000         -602.05488     -587.21097     -1049.4783     -746.24804    
        59   29.5           299.18478     -3252.5632      1367.1493     -4619.7125     -3704.0518      0.38301942     20             20             100            40000         -619.21785     -612.02124     -1090.6        -773.94636    
        60   30             301.32456     -3253.1917      1376.9272     -4630.1189     -3714.0645      0.38301942     20             20             100            40000         -661.99454     -626.59034     -1081.514      -790.03294    
        61   30.5           304.43137     -3254.051       1391.124      -4645.175      -3706.9948      0.38301942     20             20             100            40000         -717.04423     -610.11351     -1002.1651     -776.44095    
        62   31             306.81304     -3254.851       1402.0073     -4656.8583     -3671.2497      0.38301942     20             20             100            40000         -767.09579     -536.65649     -837.63248     -713.79492    
        63   31.5           307.05148     -3255.2784      1403.0968     -4658.3753     -3601.3143      0.38301942     20             20             100            40000         -797.53836     -393.66996     -588.32648     -593.17827    
        64   32             304.95296     -3255.2664      1393.5075     -4648.7739     -3503.7235      0.38301942     20             20             100            40000         -802.93512     -198.17462     -276.61335     -425.9077     
        65   32.5           301.75901     -3255.0189      1378.9125     -4633.9314     -3397.2531      0.38301942     20             20             100            40000         -788.8466       2.9860773      54.402326     -243.8194     
        66   33             299.48345     -3254.8745      1368.5141     -4623.3886     -3306.6735      0.38301942     20             20             100            40000         -767.16692      151.29276      349.49066     -88.794502    
        67   33.5           299.79778     -3255.1262      1369.9505     -4625.0767     -3253.1514      0.38301942     20             20             100            40000         -747.78137      203.15769      554.77935      3.3852209    
        68   34             303.08003     -3255.8558      1384.949      -4640.8048     -3246.0059      0.38301942     20             20             100            40000         -731.9987       149.09567      633.55781      16.884929    
        69   34.5           308.153       -3256.8924      1408.1303     -4665.0227     -3280.0499      0.38301942     20             20             100            40000         -712.13008      14.75402       578.28564     -39.696808    
        70   35             312.85149     -3257.9026      1429.6005     -4687.5031     -3339.4379      0.38301942     20             20             100            40000         -677.03653     -153.73598      411.46633     -139.76873    
        71   35.5           315.12738     -3258.5506      1440.0004     -4698.5509     -3405.9713      0.38301942     20             20             100            40000         -621.13223     -309.64502      172.64685     -252.71013    
        72   36             314.12537     -3258.7105      1435.4216     -4694.132      -3467.4601      0.38301942     20             20             100            40000         -552.41616     -420.2809      -100.82514     -357.84073    
        73   36.5           310.56304     -3258.5808      1419.1432     -4677.724      -3521.5195      0.38301942     20             20             100            40000         -493.31042     -472.11722     -386.76884     -450.73216    
        74   37             306.1249      -3258.5117      1398.8628     -4657.3745     -3572.8352      0.38301942     20             20             100            40000         -471.19412     -468.17933     -677.07624     -538.81656    
        75   37.5           302.40481     -3258.6785      1381.8635     -4640.542      -3626.7734      0.38301942     20             20             100            40000         -503.87637     -422.55303     -966.54659     -630.992      
        76   38             300.30616     -3259.0149      1372.2736     -4631.2885     -3684.5363      0.38301942     20             20             100            40000         -590.64061     -355.11815     -1242.5407     -729.43317    
        77   38.5           300.11062     -3259.4621      1371.38       -4630.8422     -3742.0877      0.38301942     20             20             100            40000         -713.91676     -286.29        -1481.7588     -827.32185    
        78   39             301.61136     -3260.0948      1378.2378     -4638.3326     -3790.7062      0.38301942     20             20             100            40000         -846.29512     -230.13983     -1652.3038     -909.57959    
        79   39.5           303.97709     -3260.9443      1389.0482     -4649.9925     -3817.879       0.38301942     20             20             100            40000         -956.24581     -188.25815     -1719.6059     -954.70328    
        80   40             305.77519     -3261.8265      1397.2647     -4659.0912     -3810.0954      0.38301942     20             20             100            40000         -1013.1411     -150.12234     -1656.281      -939.84814    
        81   40.5           305.59059     -3262.4336      1396.4212     -4658.8548     -3758.4979      0.38301942     20             20             100            40000         -994.75885     -103.04748     -1453.2696     -850.35863    
        82   41             302.95714     -3262.601       1384.3875     -4646.9884     -3665.0695      0.38301942     20             20             100            40000         -895.87011     -46.206963     -1127.6702     -689.91577    
        83   41.5           298.83206     -3262.4575      1365.5376     -4627.995      -3544.8514      0.38301942     20             20             100            40000         -732.15111      3.3012389     -723.39799     -484.08262    
        84   42             295.17529     -3262.3188      1348.8276     -4611.1464     -3421.7756      0.38301942     20             20             100            40000         -535.49231      19.38348      -303.91907     -273.34263    
        85   42.5           293.92062     -3262.4932      1343.0943     -4605.5875     -3320.1178      0.38301942     20             20             100            40000         -342.43368     -15.234748      61.326496     -98.780643    
        86   43             295.94094     -3263.1591      1352.3263     -4615.4854     -3255.9847      0.38301942     20             20             100            40000         -181.49445     -96.185373      314.57507      12.298415    
        87   43.5           300.48887     -3264.2502      1373.1085     -4637.3586     -3232.4406      0.38301942     20             20             100            40000         -65.267831     -198.24201      427.09448      54.528213    
        88   44             305.47796     -3265.41        1395.9065     -4661.3166     -3240.9851      0.38301942     20             20             100            40000          8.1029115     -287.71351      405.219        41.869466    
        89   44.5           308.63872     -3266.2061      1410.3499     -4676.556      -3268.9122      0.38301942     20             20             100            40000          45.206131     -337.62393      278.50108     -4.6389084    
        90   45             308.84969     -3266.4883      1411.3139     -4677.8022     -3307.85        0.38301942     20             20             100            40000          46.131976     -337.82426      78.984194     -70.902696    
        91   45.5           306.61216     -3266.493       1401.0894     -4667.5824     -3357.4003      0.38301942     20             20             100            40000          0.30232086    -296.5522      -171.25257     -155.83415    
        92   46             303.37744     -3266.5672      1386.308      -4652.8752     -3421.8699      0.38301942     20             20             100            40000         -107.12612     -234.48015     -457.05859     -266.22162    
        93   46.5           300.49691     -3266.8542      1373.1452     -4639.9994     -3503.9795      0.38301942     20             20             100            40000         -283.63303     -175.62516     -760.18966     -406.48262    
        94   47             298.70215     -3267.2854      1364.9439     -4632.2293     -3600.8128      0.38301942     20             20             100            40000         -521.80723     -139.49008     -1053.9112     -571.73618    
        95   47.5           298.20603     -3267.79        1362.6769     -4630.4669     -3703.3899      0.38301942     20             20             100            40000         -798.91371     -135.84367     -1305.3722     -746.70986    
        96   48             298.88637     -3268.3997      1365.7857     -4634.1854     -3798.1538      0.38301942     20             20             100            40000         -1080.2622     -162.77718     -1481.2904     -908.10994    
        97   48.5           300.24037     -3269.1578      1371.9729     -4641.1307     -3868.89        0.38301942     20             20             100            40000         -1323.6196     -207.19564     -1553.3862     -1028.0672    
        98   49             301.32967     -3269.9895      1376.9506     -4646.9401     -3899.5651      0.38301942     20             20             100            40000         -1485.9786     -248.10397     -1503.5924     -1079.225     
        99   49.5           301.08075     -3270.6746      1375.8131     -4646.4878     -3878.8165      0.38301942     20             20             100            40000         -1534.157      -263.76305     -1329.5294     -1042.4831    
       100   50             298.97024     -3271.0136      1366.169      -4637.1826     -3805.2011      0.38301942     20             20             100            40000         -1456.1214     -241.9852      -1049.0228     -915.70982    
Loop time of 305.598 on 1 procs for 100 steps with 1534 atoms

Performance: 0.014 ns/day, 1697.768 hours/ns, 0.327 timesteps/s, 501.966 atom-step/s
99.3% CPU use with 1 MPI tasks x 1 OpenMP threads

MPI task timing breakdown:
Section |  min time  |  avg time  |  max time  |%varavg| %total
---------------------------------------------------------------
Pair    | 305.45     | 305.45     | 305.45     |   0.0 | 99.95
Bond    | 0.00015109 | 0.00015109 | 0.00015109 |   0.0 |  0.00
Neigh   | 0.018338   | 0.018338   | 0.018338   |   0.0 |  0.01
Comm    | 0.0042832  | 0.0042832  | 0.0042832  |   0.0 |  0.00
Output  | 0.0075068  | 0.0075068  | 0.0075068  |   0.0 |  0.00
Modify  | 0.118      | 0.118      | 0.118      |   0.0 |  0.04
Other   |            | 0.001342   |            |       |  0.00

Nlocal:           1534 ave        1534 max        1534 min
Histogram: 1 0 0 0 0 0 0 0 0 0
Nghost:           5232 ave        5232 max        5232 min
Histogram: 1 0 0 0 0 0 0 0 0 0
Neighs:         378231 ave      378231 max      378231 min
Histogram: 1 0 0 0 0 0 0 0 0 0

Total # of neighbors = 378231
Ave neighs/atom = 246.56519
Ave special neighs/atom = 1.9986962
Neighbor list builds = 2
Dangerous builds = 0

# write_data      final.data
# write_restart   restart.new
Total wall time: 0:05:08
