LAMMPS (11 Feb 2026 - Development - patch_11Feb2026-274-gb4dcbc8748)
  using 1 OpenMP thread(s) per MPI task
processors      * * * map xyz

units           real
atom_style      full
boundary        p p p

read_data       initial.data
Reading data file ...
  orthogonal box = (0.00033828339 0.00033828339 0.00033828339) to (19.655503 19.655503 19.655503)
  1 by 1 by 1 MPI processor grid
  reading atoms ...
  768 atoms
  reading velocities ...
  768 velocities
  scanning bonds ...
  2 = max bonds/atom
  scanning angles ...
  1 = max angles/atom
  orthogonal box = (0.00033828339 0.00033828339 0.00033828339) to (19.655503 19.655503 19.655503)
  1 by 1 by 1 MPI processor grid
  reading bonds ...
  512 bonds
  reading angles ...
  256 angles
Finding 1-2 1-3 1-4 neighbors ...
  special bond factors lj:    0        0        0       
  special bond factors coul:  0        0        0       
     2 = max # of 1-2 neighbors
     1 = max # of 1-3 neighbors
     1 = max # of 1-4 neighbors
     2 = max # of special neighbors
  special bonds CPU = 0.000 seconds
  read_data CPU = 0.011 seconds

pair_style      mbx 9.0

# Define bonds and angles to use if using SHAKE constraints
bond_style      zero
angle_style     zero
bond_coeff      1 0.98823 # from PIMD
angle_coeff     1 105.50896 # from PIMD

pair_coeff      * * 1 h2o 1 2 2 json mbx.json

neighbor        2.0 bin
neigh_modify    every 1 delay 10

timestep        0.5

compute         mbx all pair mbx
variable        e1bpip    equal c_mbx[1]
variable        e2bpip    equal c_mbx[2]
variable        e3bpip    equal c_mbx[3]
variable        e4bpip    equal c_mbx[4]
variable        edisp     equal c_mbx[5]
variable        ebuck     equal c_mbx[6]
variable        eperm     equal c_mbx[7]
variable        eind      equal c_mbx[8]
variable        eele      equal c_mbx[9]
variable        etot      equal c_mbx[10]

#fix             RIGID all shake 0.0001 20 0 b 1 a 1
fix             1 all npt temp 298 298 100 iso 1.0 1.0 1000

velocity        all create 298 428459 rot yes dist gaussian
velocity        all zero linear
velocity        all zero angular

thermo_style    custom step time temp etotal ke pe enthalpy density lx ly lz vol pxx pyy pzz press
thermo          1
thermo_modify   flush yes

# fix             verbose_mbx_thermo_print all print 1 "$(step) $(0.001*time) $(temp) $(etotal) $(ke) $(pe) $(enthalpy) $(density) $(lx) $(ly) $(lz) $(vol) $(pxx) $(pyy) $(pzz) $(press) $(v_e1bpip) $(v_e2bpip) $(v_e3bpip) $(v_e4bpip) $(v_edisp) $(v_ebuck) $(v_eperm) $(v_eind) $(v_eele) $(v_etot)" file mbx_thermo.out screen no title "# step time temp etotal ke pe enthalpy density lx ly lz vol pxx pyy pzz press e1bpip e2bpip e3bpip e4bpip edisp ebuck eperm eind eele etot"

# dump            1 all custom 1 dump.lammpstrj id mol type q x y z
# dump_modify     1 append no sort id format line "%d %d %d %8.4f %15.8f %15.8f %15.8f"

# restart         10 restart.1 restart.2

run             100

CITE-CITE-CITE-CITE-CITE-CITE-CITE-CITE-CITE-CITE-CITE-CITE-CITE

Your simulation uses code contributions which should be cited:

- pair mbx command:

@article{10.1063/5.0156036,
 author = {Riera, Marc and Knight, Christopher and Bull-Vulpe, Ethan F. and Zhu, Xuanyu and Agnew, Henry and Smith, Daniel G. A. and Simmonett, Andrew C. and Paesani, Francesco},
 title = "{MBX: A many-body energy and force calculator for data-driven many-body simulations}",
 journal = {The Journal of Chemical Physics},
 volume = {159},
 number = {5},
 pages = {054802},
 year = {2023},
 doi = {10.1063/5.0156036},
 version = {1.3.12}
}

CITE-CITE-CITE-CITE-CITE-CITE-CITE-CITE-CITE-CITE-CITE-CITE-CITE

Generated 0 of 1 mixed pair_coeff terms from geometric mixing rule
Neighbor list info ...
  update: every = 1 steps, delay = 10 steps, check = yes
  max neighbors/atom: 2000, page size: 100000
  master list distance cutoff = 11
  ghost atom cutoff = 11
  binsize = 5.5, bins = 4 4 4
  1 neighbor lists, perpetual/occasional/extra = 1 0 0
  (1) pair mbx, perpetual
      attributes: half, newton on
      pair build: half/bin/newton
      stencil: half/bin/3d
      bin: standard
Per MPI rank memory allocation (min/avg/max) = 8.503 | 8.503 | 8.503 Mbytes
   Step          Time           Temp          TotEng         KinEng         PotEng        Enthalpy       Density           Lx             Ly             Lz           Volume          Pxx            Pyy            Pzz           Press     
         0   0              298           -1731.1398      681.31183     -2412.4517     -1661.3647      1.0085627      19.655164      19.655164      19.655164      7593.2911      2461.8369     -310.60204     -260.99809      630.07893    
         1   0.5            305.62775     -1731.7838      698.75101     -2430.5349     -1604.1604      1.0085626      19.655165      19.655165      19.655165      7593.2915      3142.813      -49.500427      364.05582      1152.4561    
         2   1              307.93402     -1731.9033      704.02379     -2435.9271     -1540.1261      1.0085623      19.655167      19.655167      19.655167      7593.2936      3746.3788      260.48526      1188.4526      1731.7722    
         3   1.5            303.9937      -1731.5145      695.0151      -2426.5296     -1474.3196      1.0085617      19.65517       19.65517       19.65517       7593.298       4217.2951      581.2007       2169.0096      2322.5018    
         4   2              296.29825     -1730.8375      677.42115     -2408.2586     -1422.3017      1.0085607      19.655177      19.655177      19.655177      7593.3057      4420.3343      803.05541      3134.9506      2786.1134    
         5   2.5            289.28952     -1730.2117      661.39723     -2391.609      -1403.9703      1.0085592      19.655187      19.655187      19.655187      7593.3172      4202.1271      794.5432       3841.3086      2945.993     
         6   3              287.0064      -1730.0104      656.17736     -2386.1878     -1433.8797      1.0085571      19.655201      19.655201      19.655201      7593.3328      3483.5569      475.44126      4063.2547      2674.0843    
         7   3.5            290.70362     -1730.3925      664.63025     -2395.0228     -1512.4048      1.0085545      19.655217      19.655217      19.655217      7593.3522      2334.3801     -125.04171      3695.988       1968.4421    
         8   4              297.9483      -1731.1172      681.19364     -2412.3108     -1623.2223      1.0085516      19.655236      19.655236      19.655236      7593.3742      978.38444     -863.23279      2807.7321      974.29457    
         9   4.5            304.1085      -1731.7248      695.27757     -2427.0024     -1739.5067      1.0085485      19.655256      19.655256      19.655256      7593.3976     -286.39464     -1537.5108      1613.0928     -70.270878    
        10   5              305.20311     -1731.8889      697.78017     -2429.669      -1835.2669      1.0085454      19.655277      19.655277      19.655277      7593.421      -1211.1399     -1975.9958      386.63235     -933.50112    
        11   5.5            300.04419     -1731.5836      685.98543     -2417.569      -1894.9316      1.0085425      19.655296      19.655296      19.655296      7593.443      -1690.9799     -2102.8069     -631.28645     -1475.0244    
        12   6              290.5412      -1731.004       664.25892     -2395.2629     -1916.6676      1.0085398      19.655313      19.655313      19.655313      7593.463      -1779.9564     -1949.6548     -1299.9764     -1676.5292    
        13   6.5            280.54125     -1730.3851      641.39621     -2371.7813     -1909.4144      1.0085375      19.655328      19.655328      19.655328      7593.4807     -1629.9188     -1621.2443     -1598.6905     -1616.6179    
        14   7              274.2379      -1729.9209      626.985       -2356.9059     -1886.3696      1.0085354      19.655341      19.655341      19.655341      7593.4961     -1400.6947     -1243.485      -1593.9631     -1412.7142    
        15   7.5            274.67265     -1729.8323      627.97895     -2357.8113     -1857.9233      1.0085336      19.655353      19.655353      19.655353      7593.5096     -1188.4899     -912.53744     -1368.9064     -1156.6446    
        16   8              282.22973     -1730.2941      645.25656     -2375.5507     -1825.9123      1.0085321      19.655363      19.655363      19.655363      7593.5215     -989.39743     -649.2711      -951.58813     -863.41889    
        17   8.5            293.73139     -1731.1656      671.55259     -2402.7182     -1781.87        1.0085306      19.655373      19.655373      19.655373      7593.5323     -706.02691     -379.02777     -288.50173     -457.85214    
        18   9              303.51319     -1731.9521      693.91654     -2425.8686     -1712.3334      1.0085293      19.655381      19.655381      19.655381      7593.5423     -206.67563      29.32603       708.81018      177.15353    
        19   9.5            306.53881     -1732.1582      700.83394     -2432.9922     -1609.7256      1.0085279      19.65539       19.65539       19.65539       7593.5527      582.39123      667.35723      2066.887       1105.5452    
        20   10             301.44803     -1731.69        689.19499     -2420.885      -1481.8674      1.0085263      19.6554        19.6554        19.6554        7593.5646      1601.7278      1494.8714      3670.9486      2255.8493    
        21   10.5           291.21481     -1730.8605      665.79899     -2396.6595     -1353.0494      1.0085243      19.655413      19.655413      19.655413      7593.5796      2645.3953      2325.3861      5263.8839      3411.5551    
        22   11             281.28084     -1730.0673      643.08713     -2373.1545     -1255.755       1.0085217      19.65543       19.65543       19.65543       7593.5993      3422.6015      2901.1579      6525.0282      4282.9292    
        23   11.5           276.87457     -1729.6445      633.01315     -2362.6577     -1218.3897      1.0085183      19.655453      19.655453      19.655453      7593.625       3671.1482      3002.5139      7175.8232      4616.4951    
        24   12             280.63936     -1729.8338      641.62051     -2371.4544     -1254.012       1.0085141      19.65548       19.65548       19.65548       7593.657       3274.9469      2544.3671      7070.2669      4296.527     
        25   12.5           291.14418     -1730.5902      665.63751     -2396.2277     -1354.058       1.008509       19.655513      19.655513      19.655513      7593.6951      2329.0309      1627.3081      6243.5233      3399.9541    
        26   13             303.27158     -1731.5375      693.36414     -2424.9017     -1490.7321      1.0085033      19.65555       19.65555       19.65555       7593.7378      1113.5704      511.1178       4898.4403      2174.3762    
        27   13.5           310.61407     -1732.2229      710.15113     -2442.374      -1627.75        1.0084972      19.655589      19.655589      19.655589      7593.7836     -17.710668     -486.57436      3334.3123      943.34242    
        28   14             308.4633      -1732.3517      705.23388     -2437.5856     -1733.9652      1.008491       19.65563       19.65563       19.65563       7593.8307     -781.35589     -1116.4798      1854.1274     -14.569431    
        29   14.5           295.86322     -1731.8464      676.42655     -2408.273      -1793.6016      1.0084847      19.655671      19.655671      19.655671      7593.8777     -1070.2352     -1285.9527      683.34644     -557.61384    
        30   15             276.15727     -1730.8542      631.37321     -2362.2274     -1809.6882      1.0084786      19.655711      19.655711      19.655711      7593.924      -974.88809     -1075.3603     -85.217258     -711.82189    
        31   15.5           255.89625     -1729.7656      585.05082     -2314.8164     -1799.7168      1.0084726      19.65575       19.65575       19.65575       7593.9693     -713.21566     -684.15394     -497.466       -631.61187    
        32   16             242.15062     -1729.0941      553.62444     -2282.7186     -1784.7657      1.0084667      19.655788      19.655788      19.655788      7594.0138     -500.7918      -331.17587     -676.05278     -502.67348    
        33   16.5           239.1893      -1729.1724      546.85403     -2276.0264     -1776.8224      1.0084609      19.655826      19.655826      19.655826      7594.0576     -425.29067     -147.18823     -718.2492      -430.2427     
        34   17             246.33128     -1729.9515      563.18261     -2293.1341     -1771.1574      1.0084551      19.655863      19.655863      19.655863      7594.1007     -394.00508     -106.2689      -615.89156     -372.05518    
        35   17.5           258.24144     -1731.0399      590.41258     -2321.4525     -1748.1657      1.0084495      19.6559        19.6559        19.6559        7594.1434     -181.26583     -32.371023     -250.25693     -154.63126    
        36   18             267.47656     -1731.9227      611.52667     -2343.4493     -1683.8741      1.0084438      19.655936      19.655936      19.655936      7594.1858      453.04544      313.93966      534.51737      433.83416    
        37   18.5           267.9357      -1732.1915      612.57638     -2344.7678     -1563.9514      1.0084381      19.655974      19.655974      19.655974      7594.2289      1633.1773      1102.8046      1821.1448      1519.0422    
        38   19             257.63044     -1731.6977      589.01565     -2320.7133     -1394.3671      1.0084321      19.656013      19.656013      19.656013      7594.274       3283.7379      2322.4014      3531.0973      3045.7455    
        39   19.5           239.69151     -1730.615       548.00223     -2278.6172     -1203.7766      1.0084256      19.656055      19.656055      19.656055      7594.3234      5124.6896      3745.0405      5400.5882      4756.7728    
        40   20             221.14295     -1729.4168      505.59499     -2235.0118     -1035.8607      1.0084181      19.656104      19.656104      19.656104      7594.3794      6752.0038      4996.8547      7037.1569      6262.0051    
        41   20.5           209.69589     -1728.6881      479.42379     -2208.1119     -933.73875      1.0084095      19.656159      19.656159      19.656159      7594.4441      7781.8785      5707.3759      8042.9665      7177.407     
        42   21             209.91575     -1728.8029      479.92646     -2208.7294     -922.95773      1.0083996      19.656224      19.656224      19.656224      7594.5187      8000.2489      5668.6097      8158.2762      7275.7116    
        43   21.5           220.76906     -1729.7025      504.74017     -2234.4426     -1001.1378      1.0083884      19.656297      19.656297      19.656297      7594.6034      7443.4993      4926.589       7363.6055      6577.8979    
        44   22             236.03186     -1730.8731      539.63522     -2270.5084     -1139.4338      1.0083759      19.656378      19.656378      19.656378      7594.6972      6369.5818      3764.2427      5885.5327      5339.7857    
        45   22.5           247.51488     -1731.6979      565.88865     -2297.5865     -1295.4642      1.0083625      19.656465      19.656465      19.656465      7594.7984      5138.9597      2582.3338      4094.1025      3938.4653    
        46   23             249.04469     -1731.8373      569.38622     -2301.2235     -1430.6304      1.0083483      19.656557      19.656557      19.656557      7594.9051      4068.0087      1734.4277      2355.6414      2719.3593    
        47   23.5           238.94858     -1731.2335      546.30368     -2277.5372     -1523.0772      1.0083337      19.656652      19.656652      19.656652      7595.0156      3318.189       1399.9778      919.58722      1879.2513    
        48   24             220.59727     -1730.0518      504.34741     -2234.3992     -1572.4578      1.0083186      19.65675       19.65675       19.65675       7595.1287      2859.9313      1541.2102     -132.89139      1422.75      
        49   24.5           201.1818      -1728.7353      459.9582      -2188.6935     -1595.6881      1.0083034      19.656849      19.656849      19.656849      7595.2437      2525.2504      1945.092      -866.9681       1201.1248    
        50   25             188.69771     -1727.8757      431.41605     -2159.2917     -1614.9132      1.0082879      19.65695       19.65695       19.65695       7595.3604      2129.3728      2331.9662     -1401.9761      1019.7876    
        51   25.5           188.08537     -1727.8755      430.01607     -2157.8916     -1642.8614      1.0082722      19.657052      19.657052      19.657052      7595.4786      1600.1348      2496.0662     -1793.7985      767.4675     
        52   26             198.66669     -1728.6609      454.20794     -2182.8688     -1673.7841      1.0082564      19.657155      19.657155      19.657155      7595.5978      1037.6972      2413.7372     -1965.2513      495.39436    
        53   26.5           214.57057     -1729.7351      490.56868     -2220.3038     -1685.5474      1.0082405      19.657258      19.657258      19.657258      7595.7177      670.41262      2256.7056     -1730.4377      398.89351    
        54   27             227.87941     -1730.4945      520.99643     -2251.4909     -1651.8538      1.0082245      19.657362      19.657362      19.657362      7595.8381      738.37008      2292.5831     -901.26119      709.89734    
        55   27.5           232.58657     -1730.5402      531.75833     -2262.2985     -1557.7061      1.0082083      19.657467      19.657467      19.657467      7595.9596      1368.0421      2725.6087      586.84703      1560.166     
        56   28             227.36865     -1729.8039      519.82871     -2249.6326     -1410.1549      1.0081919      19.657573      19.657573      19.657573      7596.0832      2492.3242      3566.6081      2597.3028      2885.4117    
        57   28.5           216.09214     -1728.5822      494.04743     -2222.6296     -1239.2452      1.008175       19.657683      19.657683      19.657683      7596.2109      3847.5169      4601.4676      4802.2521      4417.0789    
        58   29             205.83675     -1727.4448      470.60071     -2198.0455     -1088.4483      1.0081572      19.657799      19.657799      19.657799      7596.3446      5053.1652      5472.7453      6777.7995      5767.9033    
        59   29.5           203.16592     -1726.931       464.49445     -2191.4254     -998.26027      1.0081384      19.657921      19.657921      19.657921      7596.4864      5749.265       5835.2973      8147.1101      6577.2241    
        60   30             210.70938     -1727.1447      481.74092     -2208.8856     -990.9033       1.0081184      19.658051      19.658051      19.658051      7596.6373      5731.743       5502.7698      8701.7708      6645.4279    
        61   30.5           226.33789     -1727.741       517.47208     -2245.213      -1064.1106      1.0080972      19.658189      19.658189      19.658189      7596.7974      5022.1011      4510.7533      8436.8566      5989.9037    
        62   31             245.01053     -1728.3521      560.163       -2288.5151     -1195.6826      1.0080748      19.658335      19.658335      19.658335      7596.9658      3842.0862      3086.2018      7494.9568      4807.7483    
        63   31.5           261.08032     -1728.8173      596.90306     -2325.7204     -1353.3389      1.0080516      19.658486      19.658486      19.658486      7597.1409      2512.9726      1564.9697      6088.7617      3388.9013    
        64   32             269.79711     -1728.9251      616.83208     -2345.7571     -1504.7683      1.0080277      19.658641      19.658641      19.658641      7597.3207      1328.321       282.92997      4458.0228      2023.0912    
        65   32.5           268.92628     -1728.3938      614.84113     -2343.235      -1627.4209      1.0080035      19.658798      19.658798      19.658798      7597.5033      452.22211     -546.30269      2827.9595      911.29296    
        66   33             260.3418      -1727.2649      595.21458     -2322.4795     -1715.3671      1.0079791      19.658957      19.658957      19.658957      7597.6872     -116.26671     -909.31135      1347.7075      107.37649    
        67   33.5           249.69892     -1725.9754      570.88198     -2296.8574     -1777.9974      1.0079547      19.659116      19.659116      19.659116      7597.8713     -500.20244     -971.59174      63.347387     -469.48226    
        68   34             243.70126     -1725.066       557.16963     -2282.2356     -1830.3139      1.0079303      19.659274      19.659274      19.659274      7598.0547     -845.49768     -967.44518     -1036.4776     -949.80682    
        69   34.5           246.61269     -1724.8653      563.82599     -2288.6912     -1880.7232      1.0079062      19.659431      19.659431      19.659431      7598.2368     -1216.8263     -1060.629      -1942.0487     -1406.5013    
        70   35             258.03713     -1725.3332      589.94546     -2315.2786     -1923.3896      1.0078823      19.659586      19.659586      19.659586      7598.417      -1541.564      -1248.7229     -2571.5216     -1787.2695    
        71   35.5           273.16593     -1726.0585      624.53415     -2350.5927     -1939.729       1.0078587      19.65974       19.65974       19.65974       7598.5947     -1634.7071     -1365.3713     -2784.2986     -1928.1257    
        72   36             285.38157     -1726.507       652.46254     -2378.9695     -1908.5081      1.0078355      19.659891      19.659891      19.659891      7598.7698     -1292.7504     -1183.3051     -2450.8723     -1642.3092    
        73   36.5           289.74018     -1726.3141      662.42755     -2388.7417     -1819.0223      1.0078126      19.66004       19.66004       19.66004       7598.9426     -408.71462     -562.10049     -1538.8172     -836.54411    
        74   37             285.45884     -1725.4392      652.63921     -2378.0784     -1680.0975      1.0077898      19.660188      19.660188      19.660188      7599.1142      950.20917      442.59976     -165.42677      409.12739    
        75   37.5           276.25796     -1724.188       631.60341     -2355.7914     -1520.1539      1.007767       19.660336      19.660336      19.660336      7599.2864      2539.3039      1569.1696      1414.53        1841.0012    
        76   38             268.36655     -1723.0985      613.56143     -2336.6599     -1377.8661      1.0077438      19.660487      19.660487      19.660487      7599.4612      4010.6984      2450.7556      2883.4323      3114.9621    
        77   38.5           267.07379     -1722.6216      610.60581     -2333.2274     -1287.3418      1.00772        19.660641      19.660641      19.660641      7599.6403      5035.307       2780.6312      3966.1108      3927.3497    
        78   39             273.86909     -1722.7877      626.14177     -2348.9295     -1265.4516      1.0076956      19.6608        19.6608        19.6608        7599.8249      5416.2271      2451.927       4510.6105      4126.2549    
        79   39.5           286.08161     -1723.2441      654.06303     -2377.3071     -1308.1183      1.0076703      19.660965      19.660965      19.660965      7600.0152      5141.2099      1593.738       4501.0225      3745.3235    
        80   40             298.88372     -1723.6094      683.33226     -2406.9417     -1396.1391      1.0076444      19.661133      19.661133      19.661133      7600.2107      4356.0507      497.08428      4010.0886      2954.4079    
        81   40.5           307.74794     -1723.6731      703.59836     -2427.2715     -1505.0302      1.0076179      19.661305      19.661305      19.661305      7600.4104      3285.183      -512.8188       3145.2106      1972.5249    
        82   41             310.07081     -1723.3186      708.9091      -2432.2277     -1613.7076      1.0075911      19.66148       19.66148       19.66148       7600.6128      2144.4136     -1195.4691      2017.6001      988.84821    
        83   41.5           305.97777     -1722.5854      699.55126     -2422.1367     -1710.2062      1.0075641      19.661656      19.661656      19.661656      7600.8165      1081.7243     -1466.6201      719.92105      111.67507    
        84   42             298.03815     -1721.7005      681.39904     -2403.0995     -1792.5864      1.0075371      19.661831      19.661831      19.661831      7601.0205      163.49405     -1403.4925     -678.37808     -639.45883    
        85   42.5           289.97873     -1720.8286      662.97296     -2383.8015     -1864.9065      1.0075101      19.662006      19.662006      19.662006      7601.2236     -602.96359     -1189.5587     -2106.5331     -1299.6851    
        86   43             285.42707     -1720.1321      652.56657     -2372.6987     -1931.8624      1.0074835      19.66218       19.66218       19.66218       7601.4248     -1232.8245     -1026.3028     -3470.5923     -1909.9065    
        87   43.5           286.65463     -1719.8429      655.37311     -2375.216      -1993.4772      1.0074571      19.662351      19.662351      19.662351      7601.6235     -1727.4307     -1036.8069     -4640.497      -2468.2449    
        88   44             293.21423     -1720.0193      670.37022     -2390.3895     -2041.1683      1.0074313      19.66252       19.66252       19.66252       7601.8187     -2044.045      -1199.1716     -5447.0768     -2896.7645    
        89   44.5           301.68913     -1720.4077      689.74621     -2410.1539     -2058.8466      1.0074059      19.662685      19.662685      19.662685      7602.0099     -2090.5154     -1357.509      -5709.903      -3052.6425    
        90   45             307.31944     -1720.5984      702.61869     -2423.2171     -2030.1879      1.0073811      19.662846      19.662846      19.662846      7602.1969     -1764.4626     -1315.8041     -5296.8072     -2792.358     
        91   45.5           306.63737     -1720.284       701.05929     -2421.3433     -1948.3884      1.0073569      19.663004      19.663004      19.663004      7602.3801     -1027.7935     -956.3856      -4187.8719     -2057.3503    
        92   46             299.48972     -1719.4374      684.71774     -2404.1552     -1822.8365      1.007333       19.663159      19.663159      19.663159      7602.5604      26.751879     -313.98564     -2510.4728     -932.56885    
        93   46.5           289.23303     -1718.3493      661.26808     -2379.6174     -1678.4934      1.0073093      19.663313      19.663313      19.663313      7602.7394      1167.8941      431.33022     -520.85474      359.45653    
        94   47             280.8783      -1717.4708      642.16681     -2359.6376     -1547.5998      1.0072855      19.663468      19.663468      19.663468      7602.9189      2094.2022      1037.1223      1464.722       1532.0155    
        95   47.5           278.23295     -1717.1077      636.1188      -2353.2264     -1457.5732      1.0072614      19.663625      19.663625      19.663625      7603.1006      2548.2421      1314.5303      3159.0476      2340.6067    
        96   48             281.92564     -1717.2059      644.56133     -2361.7672     -1421.7715      1.0072369      19.663784      19.663784      19.663784      7603.2855      2413.1905      1214.185       4365.5388      2664.3048    
        97   48.5           289.58886     -1717.4536      662.08159     -2379.5352     -1437.6426      1.0072119      19.663947      19.663947      19.663947      7603.4742      1740.0276      838.91486      4991.0957      2523.3461    
        98   49             297.63541     -1717.5994      680.47828     -2398.0777     -1491.6173      1.0071865      19.664113      19.664113      19.664113      7603.6664      701.28196      384.3734       5027.9366      2037.864     
        99   49.5           302.89083     -1717.5771      692.49365     -2410.0708     -1566.0823      1.0071606      19.664281      19.664281      19.664281      7603.8614     -486.15579      46.29196       4538.2141      1366.1168    
       100   50             303.33647     -1717.3173      693.51249     -2410.8298     -1645.0949      1.0071346      19.66445       19.66445       19.66445       7604.0583     -1621.9658     -60.918855      3636.6481      651.25445    
Loop time of 77.6656 on 1 procs for 100 steps with 768 atoms

Performance: 0.056 ns/day, 431.476 hours/ns, 1.288 timesteps/s, 988.854 atom-step/s
99.4% CPU use with 1 MPI tasks x 1 OpenMP threads

MPI task timing breakdown:
Section |  min time  |  avg time  |  max time  |%varavg| %total
---------------------------------------------------------------
Pair    | 77.483     | 77.483     | 77.483     |   0.0 | 99.77
Bond    | 0.00015614 | 0.00015614 | 0.00015614 |   0.0 |  0.00
Neigh   | 0.012615   | 0.012615   | 0.012615   |   0.0 |  0.02
Comm    | 0.0062873  | 0.0062873  | 0.0062873  |   0.0 |  0.01
Output  | 0.0064041  | 0.0064041  | 0.0064041  |   0.0 |  0.01
Modify  | 0.1554     | 0.1554     | 0.1554     |   0.0 |  0.20
Other   |            | 0.001316   |            |       |  0.00

Nlocal:            768 ave         768 max         768 min
Histogram: 1 0 0 0 0 0 0 0 0 0
Nghost:           6623 ave        6623 max        6623 min
Histogram: 1 0 0 0 0 0 0 0 0 0
Neighs:         215645 ave      215645 max      215645 min
Histogram: 1 0 0 0 0 0 0 0 0 0

Total # of neighbors = 215645
Ave neighs/atom = 280.78776
Ave special neighs/atom = 2
Neighbor list builds = 2
Dangerous builds = 0

# write_data      final.data
# write_restart   restart.new
Total wall time: 0:01:18
